 Gaussian 09, Revision B.01,
 Gaussian 09:  EM64L-G09RevB.01 12-Aug-2010

 ------------------------------------------------------------
 # opt=(maxcycles=1000,cartesian) freq freq rb3lyp/6-31G(d,p)
 ------------------------------------------------------------

 -------------------------------------
 x2-4-NO2-Ph-N2-BF4-v2-RB3LYP-6-31G_dp
 -------------------------------------
 Symbolic Z-matrix:
 Charge =  1 Multiplicity = 1

 SCF Done:  E(RB3LYP) =  -1515.37691547     A.U. after   21 cycles
 SCF Done:  E(RB3LYP) =  -1515.37965420     A.U. after   18 cycles
 SCF Done:  E(RB3LYP) =  -1515.37957995     A.U. after   18 cycles
 SCF Done:  E(RB3LYP) =  -1515.37992427     A.U. after   12 cycles
 SCF Done:  E(RB3LYP) =  -1515.37986408     A.U. after   12 cycles
 SCF Done:  E(RB3LYP) =  -1515.37994645     A.U. after   11 cycles
 SCF Done:  E(RB3LYP) =  -1515.37991307     A.U. after   11 cycles
 SCF Done:  E(RB3LYP) =  -1515.37995370     A.U. after   11 cycles
 SCF Done:  E(RB3LYP) =  -1515.37980005     A.U. after   18 cycles
 SCF Done:  E(RB3LYP) =  -1515.37995508     A.U. after   18 cycles
 SCF Done:  E(RB3LYP) =  -1515.38016371     A.U. after   18 cycles
 SCF Done:  E(RB3LYP) =  -1515.38016380     A.U. after    8 cycles
 SCF Done:  E(RB3LYP) =  -1515.38016373     A.U. after   18 cycles
 SCF Done:  E(RB3LYP) =  -1515.38016384     A.U. after    8 cycles
 SCF Done:  E(RB3LYP) =  -1515.38016381     A.U. after    9 cycles
 SCF Done:  E(RB3LYP) =  -1515.38016384     A.U. after    9 cycles
 SCF Done:  E(RB3LYP) =  -1515.38016384     A.U. after    7 cycles
 SCF Done:  E(RB3LYP) =  -1515.38016384     A.U. after    7 cycles
 SCF Done:  E(RB3LYP) =  -1515.38016384     A.U. after    8 cycles
 Optimization completed.
    -- Stationary point found.
 Normal termination of Gaussian 09 at Fri Mar 29 19:55:33 2019.

 ----------------------------------------------------------------------
 #N Geom=AllCheck Guess=TCheck SCRF=Check GenChk RB3LYP/6-31G(d,p) Freq
 ----------------------------------------------------------------------

 -------------------------------------
 No Z-matrix found on checkpoint file.
 Cartesian coordinates read from the checkpoint file:
 x2-4-NO2-Ph-N2-BF4-v2-RB3LYP-6-31G_dp.chk
 Charge =  1 Multiplicity = 1

                         Standard orientation:
 ---------------------------------------------------------------------
 Center     Atomic      Atomic             Coordinates (Angstroms)
 Number     Number       Type             X           Y           Z
 ---------------------------------------------------------------------
      1          6           0       -3.483447    0.123610   -0.352904
      2          6           0       -3.569983   -1.278719   -0.324024
      3          6           0       -4.754419   -2.000914   -0.086050
      4          6           0       -5.912212   -1.272364    0.138592
      5          6           0       -5.839538    0.120779    0.107681
      6          6           0       -4.662344    0.825692   -0.133281
      7          1           0       -2.534069    0.620687   -0.525999
      8          1           0       -4.756432   -3.084815   -0.075366
      9          1           0       -6.860540   -1.757168    0.333979
     10          1           0       -4.680060    1.908397   -0.139549
     11          7           0       -2.424781   -2.020281   -0.569065
     12          7           0       -1.531787   -2.643358   -0.793565
     13          1           0        2.534068   -0.620646   -0.526196
     14          6           0        3.483449   -0.123595   -0.353039
     15          6           0        3.569999    1.278730   -0.324074
     16          6           0        4.662328   -0.825706   -0.133401
     17          6           0        4.754434    2.000896   -0.086015
     18          6           0        5.839520   -0.120824    0.107658
     19          1           0        4.680035   -1.908411   -0.139725
     20          6           0        5.912208    1.272318    0.138637
     21          1           0        4.756454    3.084797   -0.075270
     22          7           0        2.424814    2.020320   -0.569106
     23          7           0        1.531850    2.643472   -0.793520
     24          7           0       -7.090752    0.894144    0.345667
     25          8           0       -6.999821    2.114318    0.304059
     26          8           0       -8.105861    0.244042    0.561696
     27          9           0       -1.037299   -0.511205    1.024424
     28          9           0        1.037379    0.511228    1.024406
     29          9           0       -0.507443    1.031232   -0.591717
     30          9           0        0.507432   -1.031084   -0.591830
     31          5           0        0.000017    0.000044    0.242459
     32          1           0        6.860531    1.757098    0.334090
     33          7           0        7.090705   -0.894228    0.345695
     34          8           0        8.105830   -0.244156    0.561746
     35          8           0        6.999726   -2.114404    0.304095
 ---------------------------------------------------------------------

 SCF Done:  E(RB3LYP) =  -1515.38016384     A.U. after    1 cycles

 The electronic state is 1-A.
 Alpha  occ. eigenvalues --  -24.74919 -24.74919 -24.74367 -24.74366 -19.30306
 Alpha  occ. eigenvalues --  -19.30306 -19.30302 -19.30302 -14.69448 -14.69448
 Alpha  occ. eigenvalues --  -14.69269 -14.69269 -14.66072 -14.66072 -10.44719
 Alpha  occ. eigenvalues --  -10.44719 -10.40707 -10.40707 -10.39013 -10.39013
 Alpha  occ. eigenvalues --  -10.37952 -10.37952 -10.36904 -10.36904 -10.36569
 Alpha  occ. eigenvalues --  -10.36569  -6.94181  -1.34788  -1.34788  -1.34228
 Alpha  occ. eigenvalues --   -1.34217  -1.28393  -1.23036  -1.22910  -1.22799
 Alpha  occ. eigenvalues --   -1.17773  -1.17773  -1.07863  -1.07858  -1.00940
 Alpha  occ. eigenvalues --   -1.00939  -0.93422  -0.93421  -0.90937  -0.90935
 Alpha  occ. eigenvalues --   -0.80086  -0.80084  -0.79600  -0.79591  -0.73305
 Alpha  occ. eigenvalues --   -0.73293  -0.69395  -0.69329  -0.69244  -0.69190
 Alpha  occ. eigenvalues --   -0.68113  -0.68098  -0.65954  -0.65889  -0.65371
 Alpha  occ. eigenvalues --   -0.65371  -0.63825  -0.63504  -0.63438  -0.61794
 Alpha  occ. eigenvalues --   -0.61754  -0.61249  -0.61012  -0.60174  -0.60168
 Alpha  occ. eigenvalues --   -0.58118  -0.58110  -0.57959  -0.57718  -0.57584
 Alpha  occ. eigenvalues --   -0.54508  -0.54472  -0.52739  -0.52689  -0.49297
 Alpha  occ. eigenvalues --   -0.49231  -0.47425  -0.47234  -0.47114  -0.44874
 Alpha  occ. eigenvalues --   -0.44586  -0.44291  -0.44149  -0.44104  -0.43260
 Alpha  occ. eigenvalues --   -0.43212  -0.42520  -0.42519  -0.42337  -0.42316
 Alpha  occ. eigenvalues --   -0.41200  -0.41198
 Alpha virt. eigenvalues --   -0.26606  -0.26601  -0.23640  -0.23594  -0.19257
 Alpha virt. eigenvalues --   -0.19256  -0.17545  -0.17535  -0.12218  -0.12216
 Alpha virt. eigenvalues --   -0.06492  -0.06338  -0.00518  -0.00517  -0.00158

 Mulliken atomic charges:
              1
     1  C   -0.009626
     2  C    0.245522
     3  C   -0.045662
     4  C   -0.088252
     5  C    0.278542
     6  C   -0.104251
     7  H    0.195266
     8  H    0.176721
     9  H    0.194345
    10  H    0.193301
    11  N    0.141476
    12  N   -0.007877
    13  H    0.195265
    14  C   -0.009631
    15  C    0.245526
    16  C   -0.104250
    17  C   -0.045658
    18  C    0.278541
    19  H    0.193301
    20  C   -0.088253
    21  H    0.176721
    22  N    0.141477
    23  N   -0.007877
    24  N    0.412195
    25  O   -0.352839
    26  O   -0.353369
    27  F   -0.363897
    28  F   -0.363895
    29  F   -0.357001
    30  F   -0.357005
    31  B    0.690812
    32  H    0.194343
    33  N    0.412193
    34  O   -0.353367
    35  O   -0.352837
 Sum of Mulliken atomic charges =   1.00000

 Dipole moment (field-independent basis, Debye):
    X=              0.0001    Y=              0.0000    Z=             -4.0156  Tot=              4.0156
 Quadrupole moment (field-independent basis, Debye-Ang):
   XX=            -71.4171   YY=           -113.2311   ZZ=           -143.9489
   XY=             53.8045   XZ=             -0.0006   YZ=              0.0006

  Exact polarizability: 311.729 -38.712 213.599   0.001   0.002  80.789
 Approx polarizability: 484.009 -59.550 429.293   0.001   0.005 131.077

                     1                      2                      3
                     A                      A                      A
 Frequencies --     7.2252                17.0624                24.5663
 Red. masses --    13.6954                12.6045                 6.9708
 Frc consts  --     0.0004                 0.0022                 0.0025
 IR Inten    --     1.2596                 1.3537                 1.6515

                     4                      5                      6
                     A                      A                      A
 Frequencies --    29.6338                44.6382                46.4425
 Red. masses --     8.7083                11.7927                15.5464
 Frc consts  --     0.0045                 0.0138                 0.0198
 IR Inten    --     0.5208                 1.0885                 0.6536

                     7                      8                      9
                     A                      A                      A
 Frequencies --    47.4248                58.7893                67.6935
 Red. masses --    11.9412                 8.2373                 6.5104
 Frc consts  --     0.0158                 0.0168                 0.0176
 IR Inten    --     6.4044                 3.2665                 0.6331

                    10                     11                     12
                     A                      A                      A
 Frequencies --    73.7085                86.7627               103.7347
 Red. masses --     8.6444                13.1134                 8.1254
 Frc consts  --     0.0277                 0.0582                 0.0515
 IR Inten    --     3.8334                 2.2708                 8.3156

                    13                     14                     15
                     A                      A                      A
 Frequencies --   114.0755               117.0901               117.1842
 Red. masses --     9.5239                11.6044                16.4745
 Frc consts  --     0.0730                 0.0937                 0.1333
 IR Inten    --     6.5515                 0.7570                38.6560

                    16                     17                     18
                     A                      A                      A
 Frequencies --   145.3548               181.7213               194.9844
 Red. masses --    11.7559                12.9753                13.9857
 Frc consts  --     0.1463                 0.2525                 0.3133
 IR Inten    --    40.3204                 0.9668                27.9458

                    19                     20                     21
                     A                      A                      A
 Frequencies --   223.0045               223.2782               269.5093
 Red. masses --     8.1649                 8.1356                 7.1988
 Frc consts  --     0.2392                 0.2390                 0.3081
 IR Inten    --     0.3776                 0.8193                 0.0253

                    22                     23                     24
                     A                      A                      A
 Frequencies --   269.8590               331.9084               332.2372
 Red. masses --     7.2184                13.4354                13.3987
 Frc consts  --     0.3097                 0.8720                 0.8714
 IR Inten    --     6.7259                 0.2922                23.1116

                    25                     26                     27
                     A                      A                      A
 Frequencies --   354.9350               365.4421               409.3696
 Red. masses --    18.8268                18.7190                 3.0979
 Frc consts  --     1.3974                 1.4729                 0.3059
 IR Inten    --     0.1285                 0.0000                 2.1211

                    28                     29                     30
                     A                      A                      A
 Frequencies --   410.1170               434.5427               435.0125
 Red. masses --     3.1149                 5.3244                 5.3360
 Frc consts  --     0.3087                 0.5924                 0.5949
 IR Inten    --     0.0004                 0.0701                 0.1147

                    31                     32                     33
                     A                      A                      A
 Frequencies --   503.6571               503.9863               515.8408
 Red. masses --    11.0240                11.0304                17.6052
 Frc consts  --     1.6476                 1.6507                 2.7601
 IR Inten    --     0.3954                 0.1951                 2.0605

                    34                     35                     36
                     A                      A                      A
 Frequencies --   515.9510               530.0931               547.7594
 Red. masses --    17.9482                17.6777                 5.6412
 Frc consts  --     2.8151                 2.9267                 0.9972
 IR Inten    --     4.0009                36.9944                 5.2000

                    37                     38                     39
                     A                      A                      A
 Frequencies --   548.0677               559.2555               559.2780
 Red. masses --     5.6386                 6.3602                 6.3507
 Frc consts  --     0.9979                 1.1720                 1.1704
 IR Inten    --    13.1776                 1.3059                 3.8953

                    40                     41                     42
                     A                      A                      A
 Frequencies --   574.7226               574.7912               644.3815
 Red. masses --     8.0945                 8.1101                 7.4736
 Frc consts  --     1.5753                 1.5787                 1.8284
 IR Inten    --     0.3357                 2.0705                 8.2871

                    43                     44                     45
                     A                      A                      A
 Frequencies --   645.0967               663.3644               663.8914
 Red. masses --     7.4729                 4.7827                 4.8096
 Frc consts  --     1.8323                 1.2400                 1.2490
 IR Inten    --     0.0000                 4.6715                24.3192

                    46                     47                     48
                     A                      A                      A
 Frequencies --   746.9711               747.0146               766.9806
 Red. masses --     4.1964                 4.2008                18.7100
 Frc consts  --     1.3795                 1.3811                 6.4847
 IR Inten    --     1.1196                35.8822                 2.0983

                    49                     50                     51
                     A                      A                      A
 Frequencies --   775.9898               776.1970               847.7881
 Red. masses --     7.4075                 7.4054                 1.2987
 Frc consts  --     2.6281                 2.6287                 0.5500
 IR Inten    --    56.1935                 0.4007                 0.2191

                    52                     53                     54
                     A                      A                      A
 Frequencies --   848.2484               865.8791               866.0397
 Red. masses --     1.3040                10.2781                10.2651
 Frc consts  --     0.5528                 4.5402                 4.5362
 IR Inten    --    11.0544                86.2929                 3.4791

                    55                     56                     57
                     A                      A                      A
 Frequencies --   899.4009               901.4523               996.3905
 Red. masses --     1.5379                 1.5230                 1.3189
 Frc consts  --     0.7330                 0.7292                 0.7715
 IR Inten    --    13.5159                60.5281                 0.1665

                    58                     59                     60
                     A                      A                      A
 Frequencies --   996.4027              1019.2777              1023.6935
 Red. masses --     1.3190                 1.6381                 1.5043
 Frc consts  --     0.7716                 1.0027                 0.9288
 IR Inten    --     1.3521                15.7364                 0.0001

                    61                     62                     63
                     A                      A                      A
 Frequencies --  1024.5616              1025.5480              1054.2828
 Red. masses --     2.2048                 2.2606                 7.4062
 Frc consts  --     1.3636                 1.4008                 4.8502
 IR Inten    --     9.3008                 2.0825               161.3429

                    64                     65                     66
                     A                      A                      A
 Frequencies --  1102.5617              1115.2344              1116.2657
 Red. masses --     8.1776                 3.1017                 3.3630
 Frc consts  --     5.8571                 2.2729                 2.4690
 IR Inten    --   210.9466                90.1432                36.4185

                    67                     68                     69
                     A                      A                      A
 Frequencies --  1130.5784              1131.8255              1142.7781
 Red. masses --     2.7950                 2.9745                 1.5495
 Frc consts  --     2.1049                 2.2450                 1.1922
 IR Inten    --     3.4516               150.5543               116.9776

                    70                     71                     72
                     A                      A                      A
 Frequencies --  1144.6428              1173.1224              1213.6754
 Red. masses --     1.5651                 8.0553                 1.3314
 Frc consts  --     1.2082                 6.5316                 1.1555
 IR Inten    --     3.3880               604.8751                 0.0033

                    73                     74                     75
                     A                      A                      A
 Frequencies --  1214.7916              1334.0242              1334.1945
 Red. masses --     1.3683                 1.3431                 1.3393
 Frc consts  --     1.1897                 1.4083                 1.4046
 IR Inten    --     9.3239                17.2714                 0.1661

                    76                     77                     78
                     A                      A                      A
 Frequencies --  1381.0765              1381.1347              1389.2676
 Red. masses --     8.7490                 8.6836                14.5071
 Frc consts  --     9.8320                 9.7594                16.4970
 IR Inten    --     1.2779                94.4823               362.4196

                    79                     80                     81
                     A                      A                      A
 Frequencies --  1389.6185              1453.2490              1453.4148
 Red. masses --    14.5034                 3.1337                 3.1336
 Frc consts  --    16.5010                 3.8993                 3.9000
 IR Inten    --     8.6606                 0.3207                29.5507

                    82                     83                     84
                     A                      A                      A
 Frequencies --  1504.8284              1504.8934              1617.3138
 Red. masses --     1.9670                 1.9702                 8.0091
 Frc consts  --     2.6244                 2.6288                12.3431
 IR Inten    --     0.0078                 4.7660                 0.3702

                    85                     86                     87
                     A                      A                      A
 Frequencies --  1617.4136              1628.6256              1628.8997
 Red. masses --     8.0391                 5.5906                 5.6063
 Frc consts  --    12.3908                 8.7367                 8.7642
 IR Inten    --   106.7396               158.0068                 4.7009

                    88                     89                     90
                     A                      A                      A
 Frequencies --  1682.5910              1682.6330              2380.0886
 Red. masses --    12.3123                12.3215                13.9504
 Frc consts  --    20.5374                20.5538                46.5611
 IR Inten    --    15.0313               264.7391                11.1320

                    91                     92                     93
                     A                      A                      A
 Frequencies --  2380.2356              3207.4699              3208.3718
 Red. masses --    13.9485                 1.0976                 1.0975
 Frc consts  --    46.5606                 6.6530                 6.6564
 IR Inten    --   291.9534               401.1965                 0.2755

                    94                     95                     96
                     A                      A                      A
 Frequencies --  3232.0548              3232.0612              3251.5064
 Red. masses --     1.0929                 1.0929                 1.0931
 Frc consts  --     6.7266                 6.7266                 6.8090
 IR Inten    --     1.1034                 6.7097                 0.4210

                    97                     98                     99
                     A                      A                      A
 Frequencies --  3251.5378              3252.6604              3252.6876
 Red. masses --     1.0931                 1.0950                 1.0950
 Frc consts  --     6.8091                 6.8256                 6.8256
 IR Inten    --    45.7669                22.7568                 9.4654

 - Thermochemistry -
 -------------------
 Temperature   298.150 Kelvin.  Pressure   1.00000 Atm.
 Atom     1 has atomic number  6 and mass  12.00000

 Molecular mass:   387.06362 amu.
 Principal axes and moments of inertia in atomic units:
                           1         2         3
     Eigenvalues --  3060.10891********************
           X            0.99999   0.00394   0.00000
           Y           -0.00394   0.99999   0.00000
           Z            0.00000   0.00000   1.00000
 This molecule is an asymmetric top.
 Rotational symmetry number  1.
 Warning -- assumption of classical behavior for rotation
           may cause significant error
 Rotational temperatures (Kelvin)      0.02830     0.00270     0.00252
 Rotational constants (GHZ):           0.58976     0.05628     0.05250
 Zero-point vibrational energy     576521.6 (Joules/Mol)
                                  137.79198 (Kcal/Mol)
 Warning -- explicit consideration of  41 degrees of freedom as
           vibrations may cause significant error
 Vibrational temperatures:     10.40    24.55    35.35    42.64    64.22
          (Kelvin)             66.82    68.23    84.58    97.40   106.05
                              124.83   149.25   164.13   168.47   168.60
                              209.13   261.46   280.54   320.85   321.25
                              387.76   388.27   477.54   478.01   510.67
                              525.79   588.99   590.07   625.21   625.89
                              724.65   725.12   742.18   742.34   762.68
                              788.10   788.55   804.64   804.68   826.90
                              827.00   927.12   928.15   954.43   955.19
                             1074.72  1074.79  1103.51  1116.47  1116.77
                             1219.78  1220.44  1245.81  1246.04  1294.04
                             1296.99  1433.58  1433.60  1466.51  1472.86
                             1474.11  1475.53  1516.88  1586.34  1604.57
                             1606.06  1626.65  1628.44  1644.20  1646.88
                             1687.86  1746.21  1747.81  1919.36  1919.61
                             1987.06  1987.14  1998.84  1999.35  2090.90
                             2091.14  2165.11  2165.20  2326.95  2327.09
                             2343.23  2343.62  2420.87  2420.93  3424.41
                             3424.62  4614.83  4616.13  4650.20  4650.21
                             4678.19  4678.23  4679.85  4679.89

 Zero-point correction=                           0.219585 (Hartree/Particle)
 Thermal correction to Energy=                    0.244994
 Thermal correction to Enthalpy=                  0.245938
 Thermal correction to Gibbs Free Energy=         0.157573
 Sum of electronic and zero-point Energies=          -1515.160578
 Sum of electronic and thermal Energies=             -1515.135170
 Sum of electronic and thermal Enthalpies=           -1515.134225
 Sum of electronic and thermal Free Energies=        -1515.222591

                     E (Thermal)             CV                S
                      KCal/Mol        Cal/Mol-Kelvin    Cal/Mol-Kelvin
 Total                  153.736             89.689            185.981
 Electronic               0.000              0.000              0.000
 Translational            0.889              2.981             43.752
 Rotational               0.889              2.981             36.465
 Vibrational            151.959             83.728            105.763
 Vibration     1          0.593              1.987              8.657
 Vibration     2          0.593              1.986              6.950
 Vibration     3          0.593              1.985              6.226
 Vibration     4          0.593              1.984              5.854
 Vibration     5          0.595              1.980              5.042
 Vibration     6          0.595              1.979              4.963
 Vibration     7          0.595              1.979              4.922
 Vibration     8          0.596              1.974              4.497
 Vibration     9          0.598              1.970              4.219
 Vibration    10          0.599              1.966              4.052
 Vibration    11          0.601              1.958              3.732
 Vibration    12          0.605              1.946              3.383
 Vibration    13          0.607              1.938              3.198
 Vibration    14          0.608              1.935              3.148
 Vibration    15          0.608              1.935              3.146
 Vibration    16          0.617              1.908              2.732
 Vibration    17          0.630              1.865              2.311
 Vibration    18          0.636              1.847              2.180
 Vibration    19          0.649              1.806              1.935
 Vibration    20          0.649              1.806              1.932
 Vibration    21          0.674              1.729              1.599
 Vibration    22          0.674              1.729              1.597
 Vibration    23          0.714              1.612              1.251
 Vibration    24          0.714              1.611              1.249
 Vibration    25          0.731              1.565              1.144
 Vibration    26          0.739              1.543              1.099
 Vibration    27          0.774              1.450              0.929
 Vibration    28          0.774              1.448              0.926
 Vibration    29          0.795              1.395              0.844
 Vibration    30          0.796              1.394              0.842
 Vibration    31          0.859              1.242              0.649
 Vibration    32          0.859              1.241              0.648
 Vibration    33          0.871              1.215              0.620
 Vibration    34          0.871              1.215              0.619
 Vibration    35          0.885              1.183              0.587
 Vibration    36          0.903              1.145              0.549
 Vibration    37          0.903              1.144              0.548
 Vibration    38          0.915              1.119              0.525
 Vibration    39          0.915              1.119              0.525
 Vibration    40          0.931              1.086              0.495
 Vibration    41          0.931              1.086              0.495

 Normal termination of Gaussian 09 at Fri Mar 29 20:21:15 2019.
