                         Program Version 3.0.2 -  RELEASE  -
|  1> ! B3LYP/G 3-21G TightOpt NumFreq
|  2> %geom MaxIter 1000 end
|  3> %scf MaxIter 1000 end
|  4> %freq Temp 298.15, 323.15, 373.15, 423.15, 473.15, 523.15, 573.15, 623.15 end
|  5> * xyz 0 1
|  6> C          -1.93230         0.08680        -1.08920
|  7> C          -0.54910         0.01550        -0.97270
|  8> C           0.04280         0.83030         0.00700
|  9> C          -0.64710         1.70110         0.86750
| 10> C          -2.02890         1.75070         0.72590
| 11> C          -2.63870         0.94750        -0.24310
| 12> H          -2.45540        -0.51400        -1.82260
| 13> N           1.42610         0.76990         0.13610
| 14> N           2.55780         0.72140         0.24060
| 15> H          -3.70310         0.99400        -0.34250
| 16> H          -2.61650         2.39290         1.34810
| 17> H          -0.13470         2.29570         1.59470
| 18>
| 19> *
| 20>
| 21>                          ****END OF INPUT****
 Total Charge           Charge          ....    0
 Multiplicity           Mult            ....    1
 Number of Electrons    NEL             ....   54
FINAL SINGLE POINT ENERGY      -338.489560377013
FINAL SINGLE POINT ENERGY      -338.494447903407
FINAL SINGLE POINT ENERGY      -338.495977983263
FINAL SINGLE POINT ENERGY      -338.496163234148
FINAL SINGLE POINT ENERGY      -338.496249027692
FINAL SINGLE POINT ENERGY      -338.496284261585
FINAL SINGLE POINT ENERGY      -338.496310307330
FINAL SINGLE POINT ENERGY      -338.496322841161
FINAL SINGLE POINT ENERGY      -338.496329393358
FINAL SINGLE POINT ENERGY      -338.496331405320
FINAL SINGLE POINT ENERGY      -338.496331885720
FINAL SINGLE POINT ENERGY      -338.496331998808
                    ***********************HURRAY********************

CARTESIAN COORDINATES (ANGSTROEM)
---------------------------------
  C     -1.886515    0.100632   -1.065920
  C     -0.463951    0.014285   -0.958395
  C      0.020131    0.856709    0.035201
  C     -0.674760    1.735525    0.903108
  C     -2.042425    1.759974    0.734863
  C     -2.644370    0.937997   -0.255348
  H     -2.400960   -0.506257   -1.806506
  N      1.426825    0.772491    0.137533
  N      2.542740    0.596236    0.096696
  H     -3.724758    0.976110   -0.370318
  H     -2.658258    2.401911    1.352617
  H     -0.172799    2.346188    1.646271

 Multiplicity           Mult            ....    1
 Number of Electrons    NEL             ....   54
 Basis Dimension        Dim             ....   80

ORBITAL ENERGIES
----------------

  NO   OCC          E(Eh)            E(eV)
   0   2.0000     -14.455009      -393.3408
   1   2.0000     -14.409481      -392.1019
   2   2.0000     -10.200978      -277.5827
   3   2.0000     -10.154671      -276.3226
   4   2.0000     -10.141090      -275.9531
   5   2.0000     -10.139671      -275.9145
   6   2.0000     -10.122323      -275.4424
   7   2.0000     -10.088077      -274.5105
   8   2.0000      -1.198949       -32.6251
   9   2.0000      -0.898666       -24.4539
  10   2.0000      -0.823006       -22.3951
  11   2.0000      -0.751901       -20.4603
  12   2.0000      -0.687847       -18.7173
  13   2.0000      -0.620656       -16.8889
  14   2.0000      -0.563958       -15.3461
  15   2.0000      -0.535705       -14.5773
  16   2.0000      -0.527049       -14.3417
  17   2.0000      -0.505808       -13.7637
  18   2.0000      -0.485563       -13.2128
  19   2.0000      -0.450526       -12.2594
  20   2.0000      -0.437018       -11.8919
  21   2.0000      -0.396509       -10.7896
  22   2.0000      -0.374049       -10.1784
  23   2.0000      -0.353237        -9.6121
  24   2.0000      -0.272421        -7.4130
  25   2.0000      -0.248934        -6.7738
  26   2.0000      -0.172657        -4.6982
  27   0.0000      -0.094378        -2.5681
  28   0.0000      -0.087084        -2.3697
  29   0.0000       0.007211         0.1962
  30   0.0000       0.025581         0.6961
  31   0.0000       0.102399         2.7864

MULLIKEN ATOMIC CHARGES
-----------------------
   0 C :   -0.264748
   1 C :   -0.018305
   2 C :    0.158489
   3 C :   -0.181062
   4 C :   -0.189395
   5 C :   -0.164847
   6 H :    0.181112
   7 N :   -0.128217
   8 N :    0.025579
   9 H :    0.192544
  10 H :    0.194379
  11 H :    0.194472
Sum of atomic charges:   -0.0000000

LOEWDIN ATOMIC CHARGES
----------------------
   0 C :   -0.118321
   1 C :   -0.215311
   2 C :   -0.058264
   3 C :   -0.106255
   4 C :   -0.109074
   5 C :   -0.070835
   6 H :    0.088644
   7 N :    0.192461
   8 N :    0.095504
   9 H :    0.097859
  10 H :    0.101515
  11 H :    0.102078

  Mayer bond orders larger than 0.1
B(  0-C ,  1-C ) :   1.3161 B(  0-C ,  3-C ) :   0.1163 B(  0-C ,  5-C ) :   1.4463
B(  0-C ,  6-H ) :   0.9187 B(  1-C ,  2-C ) :   1.4123 B(  1-C ,  8-N ) :   0.1370
B(  2-C ,  3-C ) :   1.1796 B(  2-C ,  7-N ) :   0.5877 B(  2-C ,  8-N ) :   0.1381
B(  3-C ,  4-C ) :   1.5118 B(  3-C , 11-H ) :   0.9219 B(  4-C ,  5-C ) :   1.2864
B(  4-C , 10-H ) :   0.9267 B(  5-C ,  9-H ) :   0.9224 B(  7-N ,  8-N ) :   2.4380

FINAL SINGLE POINT ENERGY      -338.496332026461

DIPOLE MOMENT
-------------
                                X             Y             Z
Electronic contribution:      6.83973      -0.82731       0.05355
Nuclear contribution   :     -6.72497       1.67275       0.88731
                        -----------------------------------------
Total Dipole Moment    :      0.11477       0.84544       0.94086
                        -----------------------------------------
Magnitude (a.u.)       :      1.27010
Magnitude (Debye)      :      3.22833

VIBRATIONAL FREQUENCIES
-----------------------

   0:         0.00 cm**-1
   1:         0.00 cm**-1
   2:         0.00 cm**-1
   3:         0.00 cm**-1
   4:         0.00 cm**-1
   5:         0.00 cm**-1
   6:       132.66 cm**-1
   7:       169.90 cm**-1
   8:       300.07 cm**-1
   9:       405.24 cm**-1
  10:       410.45 cm**-1
  11:       517.55 cm**-1
  12:       576.44 cm**-1
  13:       610.96 cm**-1
  14:       700.01 cm**-1
  15:       738.82 cm**-1
  16:       771.86 cm**-1
  17:       858.58 cm**-1
  18:       894.39 cm**-1
  19:       980.83 cm**-1
  20:      1018.20 cm**-1
  21:      1033.91 cm**-1
  22:      1037.82 cm**-1
  23:      1139.32 cm**-1
  24:      1221.85 cm**-1
  25:      1264.71 cm**-1
  26:      1332.20 cm**-1
  27:      1417.36 cm**-1
  28:      1455.56 cm**-1
  29:      1538.77 cm**-1
  30:      1589.76 cm**-1
  31:      2111.45 cm**-1
  32:      3146.47 cm**-1
  33:      3169.44 cm**-1
  34:      3180.62 cm**-1
  35:      3217.54 cm**-1

IR SPECTRUM
-----------

 Mode    freq (cm**-1)   T**2         TX         TY         TZ
-------------------------------------------------------------------
   6:       132.66    1.821421  ( -0.141624  -1.009294   0.884697)
   7:       169.90    6.308491  (  0.712407   1.567928   1.828269)
   8:       300.07    5.622142  (  0.274072   1.732611  -1.595333)
   9:       405.24   26.604053  (  4.425650  -2.074477  -1.647490)
  10:       410.45    7.198782  (  0.233770   1.980276  -1.795172)
  11:       517.55    9.196023  (  2.760451   0.652542   1.072438)
  12:       576.44    6.322039  (  0.245211   1.823823  -1.713354)
  13:       610.96   13.461637  (  0.742878   2.372580   2.698265)
  14:       700.01    8.113022  (  0.265301   2.084752  -1.922615)
  15:       738.82    1.994282  (  0.017529   0.922515   1.069084)
  16:       771.86   50.728463  (  0.684571   5.215315  -4.802116)
  17:       858.58   23.252582  (  2.386441  -2.994466  -2.930981)
  18:       894.39    0.025637  (  0.021704  -0.081488   0.136111)
  19:       980.83    0.157068  ( -0.022749   0.285082  -0.274369)
  20:      1018.20    4.780073  (  0.637399  -1.450418  -1.506679)
  21:      1033.91   14.964094  ( -3.593122  -0.683300  -1.259630)
  22:      1037.82    0.539586  ( -0.306176  -0.509182   0.431945)
  23:      1139.32    0.281584  ( -0.440526   0.216494   0.201621)
  24:      1221.85    1.357729  ( -0.376824   0.755273   0.803303)
  25:      1264.71   10.770310  ( -1.069044  -2.020899  -2.354447)
  26:      1332.20   48.999049  (  2.857398   4.096741   4.904186)
  27:      1417.36    0.916431  ( -0.335645   0.645435   0.622244)
  28:      1455.56    4.756700  (  0.962957  -1.390006  -1.377424)
  29:      1538.77   11.400876  (  1.919206  -1.997624  -1.930550)
  30:      1589.76   38.818514  ( -6.147303  -0.130109  -1.006110)
  31:      2111.45  482.547287  ( 21.659932   0.546011   3.618907)
  32:      3146.47   19.401137  (  1.912803   2.537470   3.050174)
  33:      3169.44   48.634213  ( -6.254591  -1.598920  -2.637755)
  34:      3180.62    7.960850  ( -1.192701  -1.640587  -1.961323)
  35:      3217.54   11.367866  (  2.128896  -1.904473  -1.791271)

--------------------------
THERMOCHEMISTRY AT 623.15K
--------------------------

Temperature         ... 623.15 K
Pressure            ... 1.00 atm
Total Mass          ... 104.11 AMU

Throughout the following assumptions are being made:
  (1) The electronic state is orbitally nondegenerate
  (2) There are no thermally accessible electronically excited states
  (3) Hindered rotations indicated by low frequency modes) are not
      treated as such but are treated as vibrations and this may
      case some error
  (4) All equations used are the standard statistical mechanics
      equations for an ideal gas
  (5) All vibrations are strinctly harmonic

------------
INNER ENERGY
------------

The inner energy is: U= E(el) + E(ZPE) + E(vib) + E(rot) + E(trans)
    E(el)   - is the total energy from the electronic structure calculation
              = E(kin-el) + E(nuc-el) + E(el-el) + E(nuc-nuc)
    E(ZPE)  - the the zero temperature vibrational energy from the frequency calculation
    E(vib)  - the the finite temperature correction to E(ZPE) due to population
              of excietd vibrational states
    E(rot)  - is the rotational thermal energy
    E(trans)- is the translational thermal energy

Summary of contributions to the inner energy U:
Electronic energy                ...   -338.49633203 Eh
Zero point energy                ...      0.08416174 Eh      52.81 kcal/mol
Thermal vibrational correction   ...      0.01770983 Eh      11.11 kcal/mol
Thermal rotational correction    ...      0.00296009 Eh       1.86 kcal/mol
Thermal translational correction ...      0.00296009 Eh       1.86 kcal/mol
-----------------------------------------------------------------------
Total thermal energy                   -338.38854029 Eh

Summary of corrections to the electronic energy:
(perhaps to be used in another calculation)
Total thermal correction                  0.02363001 Eh      14.83 kcal/mol
Non-thermal (ZPE) correction              0.08416174 Eh      52.81 kcal/mol
-----------------------------------------------------------------------
Total correction                          0.10779174 Eh      67.64 kcal/mol

--------
ENTHALPY
--------

The enthalpy is H = U + kB*T
                kB is Boltzmann's constant
Total free energy                 ...   -338.38854029 Eh
Thermal Enthalpy correction       ...      0.00197345 Eh       1.24 kcal/mol
-----------------------------------------------------------------------
Total Enthalpy                    ...   -338.38656684 Eh

-------
ENTROPY
-------

The entropy contributions are T*S = T*(S(el)+S(vib)+S(rot)+S(trans)
     S(el)   - electronic entropy
     S(vib)  - vibrational entropy
     S(rot)  - rotational entropy
     S(trans)- translational entropy
The entropies will be listed as mutliplied by the temperature to get
units of energy

Electronic entropy                ...      0.00000000 Eh      0.00 kcal/mol
Vibrational entropy               ...      0.03104329 Eh     19.48 kcal/mol
Rotational entropy                ...      0.02755452 Eh     17.29 kcal/mol
Translational entropy             ...      0.04319814 Eh     27.11 kcal/mol
-----------------------------------------------------------------------
Final entropy term                ...      0.10179595 Eh     63.88 kcal/mol

CAUTION: The rotational entropy is not quite correctly treated here
         because it includes a symmetry number that is not yet correctly
         implemented in ORCA!
For a nonlinear molecule the correct rotational entropy is:
    S(rot) = R*(ln(qrot/sn)+1.5)
    R    = 8.31441 J/mol/K = 1.987191683e-3 kcal/mol/K
    qrot = 775799.1238197
    sn is the rotational symmetry number. We have assumed 3 here
       if it is different for your molecule then you should correct
       the printed rotational entropy by manually evaluating the equation
       as given above

For convenience we print out the resulting values for sn=1 - 12:
 sn= 1  qrot/sn=  775799.1238 T*S(rot)=    18.65 kcal/mol T*S(tot)=    65.24 kcal/mol
 sn= 2  qrot/sn=  387899.5619 T*S(rot)=    17.79 kcal/mol T*S(tot)=    64.38 kcal/mol
 sn= 3  qrot/sn=  258599.7079 T*S(rot)=    17.29 kcal/mol T*S(tot)=    63.88 kcal/mol
 sn= 4  qrot/sn=  193949.7810 T*S(rot)=    16.93 kcal/mol T*S(tot)=    63.52 kcal/mol
 sn= 5  qrot/sn=  155159.8248 T*S(rot)=    16.66 kcal/mol T*S(tot)=    63.25 kcal/mol
 sn= 6  qrot/sn=  129299.8540 T*S(rot)=    16.43 kcal/mol T*S(tot)=    63.02 kcal/mol
 sn= 7  qrot/sn=  110828.4463 T*S(rot)=    16.24 kcal/mol T*S(tot)=    62.83 kcal/mol
 sn= 8  qrot/sn=   96974.8905 T*S(rot)=    16.08 kcal/mol T*S(tot)=    62.66 kcal/mol
 sn= 9  qrot/sn=   86199.9026 T*S(rot)=    15.93 kcal/mol T*S(tot)=    62.52 kcal/mol
 sn=10  qrot/sn=   77579.9124 T*S(rot)=    15.80 kcal/mol T*S(tot)=    62.39 kcal/mol
 sn=11  qrot/sn=   70527.1931 T*S(rot)=    15.68 kcal/mol T*S(tot)=    62.27 kcal/mol
 sn=12  qrot/sn=   64649.9270 T*S(rot)=    15.57 kcal/mol T*S(tot)=    62.16 kcal/mol

-------------------
GIBBS FREE ENTHALPY
-------------------

The Gibbs free enthalpy is G = H - T*S

Total enthalpy                    ...   -338.38656684 Eh
Total entropy correction          ...     -0.10179595 Eh    -63.88 kcal/mol
-----------------------------------------------------------------------
Final Gibbs free enthalpy         ...   -338.48836278 Eh

For completeness - the Gibbs free enthalpy minus the electronic energy
G-E(el)                           ...      0.00796924 Eh      5.00 kcal/mol

                             ****ORCA TERMINATED NORMALLY****
TOTAL RUN TIME: 0 days 0 hours 13 minutes 51 seconds 252 msec
