                         Program Version 3.0.2 -  RELEASE  -
|  1> ! B3LYP/G 3-21G TightOpt NumFreq
|  2> %geom MaxIter 1000 end
|  3> %scf MaxIter 1000 end
|  4> %freq Temp 298.15, 323.15, 373.15, 423.15, 473.15, 523.15, 573.15, 623.15 end
|  5> * xyz 0 3
|  6> C          -1.93230         0.08680        -1.08920
|  7> C          -0.54910         0.01550        -0.97270
|  8> C           0.04280         0.83030         0.00700
|  9> C          -0.64710         1.70110         0.86750
| 10> C          -2.02890         1.75070         0.72590
| 11> C          -2.63870         0.94750        -0.24310
| 12> H          -2.45540        -0.51400        -1.82260
| 13> N           1.42610         0.76990         0.13610
| 14> N           2.55780         0.72140         0.24060
| 15> H          -3.70310         0.99400        -0.34250
| 16> H          -2.61650         2.39290         1.34810
| 17> H          -0.13470         2.29570         1.59470
| 18>
| 19> *
| 20>
| 21>                          ****END OF INPUT****
 Total Charge           Charge          ....    0
 Multiplicity           Mult            ....    3
 Number of Electrons    NEL             ....   54
FINAL SINGLE POINT ENERGY      -338.476454961084
FINAL SINGLE POINT ENERGY      -338.485821127451
FINAL SINGLE POINT ENERGY      -338.488881896684
FINAL SINGLE POINT ENERGY      -338.489111943276
FINAL SINGLE POINT ENERGY      -338.489147277520
FINAL SINGLE POINT ENERGY      -338.489150267098
FINAL SINGLE POINT ENERGY      -338.489151030817
FINAL SINGLE POINT ENERGY      -338.489151421831
FINAL SINGLE POINT ENERGY      -338.489151665444
                    ***********************HURRAY********************

CARTESIAN COORDINATES (ANGSTROEM)
---------------------------------
  C     -1.948232    0.092943   -1.083384
  C     -0.591326    0.062884   -0.923704
  C      0.129083    0.826562    0.016200
  C     -0.655290    1.688610    0.853137
  C     -2.032222    1.731833    0.705435
  C     -2.701536    0.948806   -0.250326
  H     -2.438024   -0.522056   -1.830237
  N      1.459867    0.762631    0.132247
  N      2.630391    0.713259    0.239796
  H     -3.778650    0.998192   -0.351797
  H     -2.602698    2.391393    1.349314
  H     -0.150463    2.296743    1.593120

 Multiplicity           Mult            ....    3
 Number of Electrons    NEL             ....   54
 Basis Dimension        Dim             ....   80

ORBITAL ENERGIES
----------------
                 SPIN UP ORBITALS
  NO   OCC          E(Eh)            E(eV)
   0   1.0000     -14.377371      -391.2282
   1   1.0000     -14.339580      -390.1998
   2   1.0000     -10.214813      -277.9592
   3   1.0000     -10.168659      -276.7033
   4   1.0000     -10.152604      -276.2664
   5   1.0000     -10.146332      -276.0957
   6   1.0000     -10.141844      -275.9736
   7   1.0000     -10.140260      -275.9305
   8   1.0000      -1.108651       -30.1679
   9   1.0000      -0.903983       -24.5986
  10   1.0000      -0.833987       -22.6939
  11   1.0000      -0.767534       -20.8857
  12   1.0000      -0.711660       -19.3652
  13   1.0000      -0.628813       -17.1109
  14   1.0000      -0.588054       -16.0018
  15   1.0000      -0.512817       -13.9545
  16   1.0000      -0.499541       -13.5932
  17   1.0000      -0.493143       -13.4191
  18   1.0000      -0.462692       -12.5905
  19   1.0000      -0.447342       -12.1728
  20   1.0000      -0.430196       -11.7062
  21   1.0000      -0.403860       -10.9896
  22   1.0000      -0.384594       -10.4653
  23   1.0000      -0.383668       -10.4401
  24   1.0000      -0.283589        -7.7168
  25   1.0000      -0.278032        -7.5656
  26   1.0000      -0.264954        -7.2098
  27   1.0000      -0.153766        -4.1842
  28   0.0000      -0.060435        -1.6445
  29   0.0000      -0.009586        -0.2609
  30   0.0000       0.016185         0.4404
  31   0.0000       0.109894         2.9904
  32   0.0000       0.154571         4.2061

                 SPIN DOWN ORBITALS
  NO   OCC          E(Eh)            E(eV)
   0   1.0000     -14.373098      -391.1119
   1   1.0000     -14.329524      -389.9262
   2   1.0000     -10.215832      -277.9869
   3   1.0000     -10.151061      -276.2244
   4   1.0000     -10.148981      -276.1678
   5   1.0000     -10.147930      -276.1392
   6   1.0000     -10.143346      -276.0145
   7   1.0000     -10.135929      -275.8126
   8   1.0000      -1.093528       -29.7564
   9   1.0000      -0.892898       -24.2970
  10   1.0000      -0.825777       -22.4705
  11   1.0000      -0.756371       -20.5819
  12   1.0000      -0.694920       -18.9097
  13   1.0000      -0.619196       -16.8492
  14   1.0000      -0.578879       -15.7521
  15   1.0000      -0.504628       -13.7316
  16   1.0000      -0.491398       -13.3716
  17   1.0000      -0.459811       -12.5121
  18   1.0000      -0.456119       -12.4116
  19   1.0000      -0.427448       -11.6315
  20   1.0000      -0.422317       -11.4918
  21   1.0000      -0.393509       -10.7079
  22   1.0000      -0.374719       -10.1966
  23   1.0000      -0.366164        -9.9638
  24   1.0000      -0.265243        -7.2176
  25   1.0000      -0.259522        -7.0620
  26   0.0000      -0.094713        -2.5773
  27   0.0000      -0.057561        -1.5663
  28   0.0000      -0.047839        -1.3018
  29   0.0000       0.005076         0.1381
  30   0.0000       0.046432         1.2635

MULLIKEN ATOMIC CHARGES AND SPIN POPULATIONS
--------------------------------------------
   0 C :   -0.244732   -0.216463
   1 C :    0.082024    1.224789
   2 C :    0.337362   -0.149874
   3 C :   -0.154130    0.270343
   4 C :   -0.187202   -0.164547
   5 C :   -0.191582    0.339788
   6 H :    0.212085    0.032012
   7 N :   -0.391607    0.161475
   8 N :   -0.055392    0.503984
   9 H :    0.194302   -0.007277
  10 H :    0.197244    0.006527
  11 H :    0.201627   -0.000757
Sum of atomic charges         :   -0.0000000

LOEWDIN ATOMIC CHARGES AND SPIN POPULATIONS
-------------------------------------------
   0 C :   -0.114050   -0.124164
   1 C :   -0.002193    1.101917
   2 C :   -0.021059   -0.060436
   3 C :   -0.112610    0.224277
   4 C :   -0.091492   -0.111023
   5 C :   -0.114469    0.282373
   6 H :    0.114041    0.025830
   7 N :    0.040071    0.178296
   8 N :   -0.012370    0.478526
   9 H :    0.102008   -0.002923
  10 H :    0.104886    0.004544
  11 H :    0.107238    0.002783

  Mayer bond orders larger than 0.1
B(  0-C ,  1-C ) :   1.4677 B(  0-C ,  5-C ) :   1.3220 B(  0-C ,  6-H ) :   0.9108
B(  1-C ,  2-C ) :   1.2431 B(  2-C ,  3-C ) :   1.1994 B(  2-C ,  7-N ) :   0.7442
B(  2-C ,  8-N ) :   0.1045 B(  3-C ,  4-C ) :   1.4671 B(  3-C , 11-H ) :   0.9179
B(  4-C ,  5-C ) :   1.3502 B(  4-C , 10-H ) :   0.9232 B(  5-C ,  9-H ) :   0.9262
B(  7-N ,  8-N ) :   2.2139

FINAL SINGLE POINT ENERGY      -338.489151748174

DIPOLE MOMENT
-------------
                                X             Y             Z
Electronic contribution:      6.05734      -1.37480      -0.65544
Nuclear contribution   :     -6.75046       1.59389       0.79575
                        -----------------------------------------
Total Dipole Moment    :     -0.69312       0.21909       0.14030
                        -----------------------------------------
Magnitude (a.u.)       :      0.74034
Magnitude (Debye)      :      1.88180

VIBRATIONAL FREQUENCIES
-----------------------

   0:         0.00 cm**-1
   1:         0.00 cm**-1
   2:         0.00 cm**-1
   3:         0.00 cm**-1
   4:         0.00 cm**-1
   5:         0.00 cm**-1
   6:        76.26 cm**-1
   7:       173.16 cm**-1
   8:       187.37 cm**-1
   9:       429.55 cm**-1
  10:       467.44 cm**-1
  11:       492.67 cm**-1
  12:       558.24 cm**-1
  13:       647.08 cm**-1
  14:       697.93 cm**-1
  15:       730.13 cm**-1
  16:       771.42 cm**-1
  17:       841.73 cm**-1
  18:       932.15 cm**-1
  19:       984.00 cm**-1
  20:       995.06 cm**-1
  21:      1030.30 cm**-1
  22:      1123.63 cm**-1
  23:      1203.71 cm**-1
  24:      1217.28 cm**-1
  25:      1256.84 cm**-1
  26:      1330.78 cm**-1
  27:      1412.39 cm**-1
  28:      1474.96 cm**-1
  29:      1529.61 cm**-1
  30:      1584.10 cm**-1
  31:      2009.00 cm**-1
  32:      3188.71 cm**-1
  33:      3195.78 cm**-1
  34:      3212.03 cm**-1
  35:      3222.66 cm**-1

IR SPECTRUM
-----------

 Mode    freq (cm**-1)   T**2         TX         TY         TZ
-------------------------------------------------------------------
   6:        76.26    0.014990  ( -0.029145  -0.083207   0.084952)
   7:       173.16    0.337980  ( -0.121750   0.391770   0.411915)
   8:       187.37    0.162435  ( -0.016161  -0.314375   0.251677)
   9:       429.55    3.797177  ( -0.198434  -1.434948   1.303352)
  10:       467.44    0.497263  (  0.700104  -0.083399  -0.012742)
  11:       492.67    1.954865  ( -0.197906  -1.021097   0.934377)
  12:       558.24    0.088403  ( -0.150762  -0.169545  -0.192167)
  13:       647.08    0.404303  ( -0.053892   0.428297   0.466863)
  14:       697.93    0.212362  (  0.017362   0.357244  -0.290581)
  15:       730.13   93.228305  ( -0.821435  -7.120353   6.469476)
  16:       771.42    8.229829  ( -2.833854   0.433726   0.104789)
  17:       841.73    4.597137  (  0.231269   1.582862  -1.427655)
  18:       932.15    3.697723  (  0.240503   1.404126  -1.291631)
  19:       984.00    5.275895  (  2.176721   0.352187   0.643231)
  20:       995.06    0.146200  (  0.022809  -0.240984   0.295984)
  21:      1030.30   10.998680  ( -3.204611   0.760501   0.388311)
  22:      1123.63    4.785059  (  1.212316   1.129074   1.428475)
  23:      1203.71   26.865550  (  4.992938   0.519402   1.290869)
  24:      1217.28   23.727077  (  4.796638  -0.813050  -0.241443)
  25:      1256.84    0.488161  ( -0.639010  -0.143959  -0.243110)
  26:      1330.78   11.726574  (  1.985089  -2.016826  -1.928318)
  27:      1412.39    6.042581  (  2.432503   0.027214   0.353227)
  28:      1474.96   29.930715  ( -5.428140   0.057063  -0.680262)
  29:      1529.61    5.206697  ( -1.804693   1.054286   0.915565)
  30:      1584.10   19.909590  ( -4.363276  -0.258690  -0.896933)
  31:      2009.00  107.241495  (-10.309459   0.727568  -0.653597)
  32:      3188.71    0.607130  (  0.331954   0.462639   0.531885)
  33:      3195.78    2.139820  ( -0.807052   0.873432   0.851825)
  34:      3212.03    6.015044  ( -1.520705  -1.191636  -1.510796)
  35:      3222.66    4.290724  (  1.560809  -1.025618  -0.895940)

--------------------------
THERMOCHEMISTRY AT 623.15K
--------------------------

Temperature         ... 623.15 K
Pressure            ... 1.00 atm
Total Mass          ... 104.11 AMU

Throughout the following assumptions are being made:
  (1) The electronic state is orbitally nondegenerate
      but the spin degeneracy is treated
  (2) There are no thermally accessible electronically excited states
  (3) Hindered rotations indicated by low frequency modes) are not
      treated as such but are treated as vibrations and this may
      case some error
  (4) All equations used are the standard statistical mechanics
      equations for an ideal gas
  (5) All vibrations are strinctly harmonic

------------
INNER ENERGY
------------

The inner energy is: U= E(el) + E(ZPE) + E(vib) + E(rot) + E(trans)
    E(el)   - is the total energy from the electronic structure calculation
              = E(kin-el) + E(nuc-el) + E(el-el) + E(nuc-nuc)
    E(ZPE)  - the the zero temperature vibrational energy from the frequency calculation
    E(vib)  - the the finite temperature correction to E(ZPE) due to population
              of excietd vibrational states
    E(rot)  - is the rotational thermal energy
    E(trans)- is the translational thermal energy

Summary of contributions to the inner energy U:
Electronic energy                ...   -338.48915173 Eh
Zero point energy                ...      0.08423747 Eh      52.86 kcal/mol
Thermal vibrational correction   ...      0.01785363 Eh      11.20 kcal/mol
Thermal rotational correction    ...      0.00296009 Eh       1.86 kcal/mol
Thermal translational correction ...      0.00296009 Eh       1.86 kcal/mol
-----------------------------------------------------------------------
Total thermal energy                   -338.38114046 Eh

Summary of corrections to the electronic energy:
(perhaps to be used in another calculation)
Total thermal correction                  0.02377380 Eh      14.92 kcal/mol
Non-thermal (ZPE) correction              0.08423747 Eh      52.86 kcal/mol
-----------------------------------------------------------------------
Total correction                          0.10801127 Eh      67.78 kcal/mol

--------
ENTHALPY
--------

The enthalpy is H = U + kB*T
                kB is Boltzmann's constant
Total free energy                 ...   -338.38114046 Eh
Thermal Enthalpy correction       ...      0.00197345 Eh       1.24 kcal/mol
-----------------------------------------------------------------------
Total Enthalpy                    ...   -338.37916701 Eh

-------
ENTROPY
-------

The entropy contributions are T*S = T*(S(el)+S(vib)+S(rot)+S(trans)
     S(el)   - electronic entropy
     S(vib)  - vibrational entropy
     S(rot)  - rotational entropy
     S(trans)- translational entropy
The entropies will be listed as mutliplied by the temperature to get
units of energy

Electronic entropy                ...      0.00216799 Eh      1.36 kcal/mol
Vibrational entropy               ...      0.03259999 Eh     20.46 kcal/mol
Rotational entropy                ...      0.02757459 Eh     17.30 kcal/mol
Translational entropy             ...      0.04319814 Eh     27.11 kcal/mol
-----------------------------------------------------------------------
Final entropy term                ...      0.10554070 Eh     66.23 kcal/mol

CAUTION: The rotational entropy is not quite correctly treated here
         because it includes a symmetry number that is not yet correctly
         implemented in ORCA!
For a nonlinear molecule the correct rotational entropy is:
    S(rot) = R*(ln(qrot/sn)+1.5)
    R    = 8.31441 J/mol/K = 1.987191683e-3 kcal/mol/K
    qrot = 783726.5001753
    sn is the rotational symmetry number. We have assumed 3 here
       if it is different for your molecule then you should correct
       the printed rotational entropy by manually evaluating the equation
       as given above

For convenience we print out the resulting values for sn=1 - 12:
 sn= 1  qrot/sn=  783726.5002 T*S(rot)=    18.66 kcal/mol T*S(tot)=    67.59 kcal/mol
 sn= 2  qrot/sn=  391863.2501 T*S(rot)=    17.81 kcal/mol T*S(tot)=    66.73 kcal/mol
 sn= 3  qrot/sn=  261242.1667 T*S(rot)=    17.30 kcal/mol T*S(tot)=    66.23 kcal/mol
 sn= 4  qrot/sn=  195931.6250 T*S(rot)=    16.95 kcal/mol T*S(tot)=    65.87 kcal/mol
 sn= 5  qrot/sn=  156745.3000 T*S(rot)=    16.67 kcal/mol T*S(tot)=    65.60 kcal/mol
 sn= 6  qrot/sn=  130621.0834 T*S(rot)=    16.44 kcal/mol T*S(tot)=    65.37 kcal/mol
 sn= 7  qrot/sn=  111960.9286 T*S(rot)=    16.25 kcal/mol T*S(tot)=    65.18 kcal/mol
 sn= 8  qrot/sn=   97965.8125 T*S(rot)=    16.09 kcal/mol T*S(tot)=    65.01 kcal/mol
 sn= 9  qrot/sn=   87080.7222 T*S(rot)=    15.94 kcal/mol T*S(tot)=    64.87 kcal/mol
 sn=10  qrot/sn=   78372.6500 T*S(rot)=    15.81 kcal/mol T*S(tot)=    64.74 kcal/mol
 sn=11  qrot/sn=   71247.8637 T*S(rot)=    15.69 kcal/mol T*S(tot)=    64.62 kcal/mol
 sn=12  qrot/sn=   65310.5417 T*S(rot)=    15.59 kcal/mol T*S(tot)=    64.51 kcal/mol

-------------------
GIBBS FREE ENTHALPY
-------------------

The Gibbs free enthalpy is G = H - T*S

Total enthalpy                    ...   -338.37916701 Eh
Total entropy correction          ...     -0.10554070 Eh    -66.23 kcal/mol
-----------------------------------------------------------------------
Final Gibbs free enthalpy         ...   -338.48470771 Eh

For completeness - the Gibbs free enthalpy minus the electronic energy
G-E(el)                           ...      0.00444402 Eh      2.79 kcal/mol

                             ****ORCA TERMINATED NORMALLY****
TOTAL RUN TIME: 0 days 0 hours 15 minutes 20 seconds 455 msec
