 Gaussian 09, Revision B.01,
 Gaussian 09:  EM64L-G09RevB.01 12-Aug-2010

 ----------------------------------------------------------------------
 # rb3lyp/aug-cc-pVDZ irc=(calcfc,maxcycle=1000,maxpoints=10000,stepsiz
 e=1) scf=(xqc,maxcycle=1000) nosymm
 ----------------------------------------------------------------------

 -----------
 2-HOOC-C6H3
 -----------
 Symbolic Z-matrix:
 Charge =  0 Multiplicity = 1

 SCF Done:  E(RB3LYP) =  -529.043571855     A.U. after   19 cycles
 SCF Done:  E(RB3LYP) =  -529.043576133     A.U. after   12 cycles
 SCF Done:  E(RB3LYP) =  -529.043588785     A.U. after   12 cycles
 SCF Done:  E(RB3LYP) =  -529.043610104     A.U. after   12 cycles
 SCF Done:  E(RB3LYP) =  -529.043639688     A.U. after   12 cycles
 SCF Done:  E(RB3LYP) =  -529.043677433     A.U. after   12 cycles
 SCF Done:  E(RB3LYP) =  -529.043723132     A.U. after   12 cycles
 SCF Done:  E(RB3LYP) =  -529.043776549     A.U. after   12 cycles
 SCF Done:  E(RB3LYP) =  -529.043837409     A.U. after   12 cycles
 SCF Done:  E(RB3LYP) =  -529.043905397     A.U. after   12 cycles
 SCF Done:  E(RB3LYP) =  -529.087232665     A.U. after   10 cycles
 SCF Done:  E(RB3LYP) =  -529.087245496     A.U. after   10 cycles
 SCF Done:  E(RB3LYP) =  -529.087258177     A.U. after   10 cycles
 SCF Done:  E(RB3LYP) =  -529.087270724     A.U. after   10 cycles
 SCF Done:  E(RB3LYP) =  -529.087283121     A.U. after   10 cycles
 SCF Done:  E(RB3LYP) =  -529.087295387     A.U. after   10 cycles
 SCF Done:  E(RB3LYP) =  -529.087307509     A.U. after   10 cycles
 SCF Done:  E(RB3LYP) =  -529.087319510     A.U. after   10 cycles
 SCF Done:  E(RB3LYP) =  -529.087331364     A.U. after   10 cycles
 SCF Done:  E(RB3LYP) =  -529.087343096     A.U. after   10 cycles

                          Input orientation:
 ---------------------------------------------------------------------
 Center     Atomic      Atomic             Coordinates (Angstroms)
 Number     Number       Type             X           Y           Z
 ---------------------------------------------------------------------
      1          6           0       -2.914883   -0.015320    0.000001
      2          6           0       -1.791705    0.796190    0.000006
      3          6           0       -0.589918    0.446959    0.000007
      4          6           0       -0.118903   -0.862432    0.000002
      5          6           0       -1.192425   -1.789325   -0.000004
      6          6           0       -2.535955   -1.381293   -0.000004
      7          1           0       -3.955770    0.302612    0.000001
      8          1           0       -0.943917   -2.851119   -0.000009
      9          7           0        1.585957    3.029466   -0.000041
     10          7           0        1.158724    4.047545    0.000025
     11          1           0       -3.320770   -2.139751   -0.000009
     12          6           0        1.293269   -1.319055    0.000002
     13          8           0        1.642812   -2.481662   -0.000006
     14          8           0        2.167511   -0.285055    0.000013
     15          1           0        3.057416   -0.672778    0.000012
 ---------------------------------------------------------------------

 Alpha  occ. eigenvalues --  -19.20867 -19.15274 -14.44030 -14.43871 -10.33768
 Alpha  occ. eigenvalues --  -10.24985 -10.24777 -10.22638 -10.22581 -10.22365
 Alpha  occ. eigenvalues --  -10.22157  -1.12583  -1.12508  -1.03580  -0.89881
 Alpha  occ. eigenvalues --   -0.79781  -0.76956  -0.69336  -0.62230  -0.59864
 Alpha  occ. eigenvalues --   -0.55406  -0.54240  -0.51219  -0.50033  -0.47643
 Alpha  occ. eigenvalues --   -0.46879  -0.46293  -0.46282  -0.43383  -0.42650
 Alpha  occ. eigenvalues --   -0.41346  -0.40786  -0.40334  -0.34036  -0.31100
 Alpha  occ. eigenvalues --   -0.28936  -0.28742  -0.28130
 Alpha virt. eigenvalues --   -0.10196  -0.08359  -0.03114  -0.02812  -0.01991
 Alpha virt. eigenvalues --   -0.01328  -0.00568   0.01124   0.02474   0.02798
 Alpha virt. eigenvalues --    0.03822   0.03834   0.04887   0.06421   0.06526

 Mulliken atomic charges:
              1
     1  C    0.740715
     2  C   -1.173346
     3  C    0.053518
     4  C    1.522382
     5  C    0.902065
     6  C    0.528024
     7  H   -0.602410
     8  H   -0.960633
     9  N    0.130493
    10  N   -0.140639
    11  H   -0.761702
    12  C    0.606430
    13  O   -0.554963
    14  O   -0.562050
    15  H    0.272117
 Sum of Mulliken atomic charges =   0.00000

 Dipole moment (field-independent basis, Debye):
    X=             -1.6187    Y=              0.1161    Z=              0.0000  Tot=              1.6228
 Quadrupole moment (field-independent basis, Debye-Ang):
   XX=            -48.6663   YY=            -69.2453   ZZ=            -63.3083
   XY=              5.5434   XZ=              0.0001   YZ=             -0.0001

  Exact polarizability:   0.000   0.000   0.000   0.000   0.000   0.000
 Approx polarizability: 234.008 -24.347 197.502   0.000   0.001  90.284

 Normal termination of Gaussian 09 at Thu Dec 20 23:35:21 2018.
