 Gaussian 09, Revision B.01,
 Gaussian 09:  EM64L-G09RevB.01 12-Aug-2010

 ----------------------------------------------------------------------
 # rb3lyp/aug-cc-pVDZ irc=(calcfc,maxcycle=1000,maxpoints=10000,stepsiz
 e=1) scf=(xqc,maxcycle=1000) nosymm
 ----------------------------------------------------------------------

 ----------
 2-NO2-C6H3
 ----------
 Symbolic Z-matrix:
 Charge =  0 Multiplicity = 1

 SCF Done:  E(RB3LYP) =  -544.971429311     A.U. after   19 cycles
 SCF Done:  E(RB3LYP) =  -544.971433089     A.U. after   12 cycles
 SCF Done:  E(RB3LYP) =  -544.971444255     A.U. after   12 cycles
 SCF Done:  E(RB3LYP) =  -544.971462957     A.U. after   12 cycles
 SCF Done:  E(RB3LYP) =  -544.971488995     A.U. after   12 cycles
 SCF Done:  E(RB3LYP) =  -544.971522328     A.U. after   12 cycles
 SCF Done:  E(RB3LYP) =  -544.971562857     A.U. after   12 cycles
 SCF Done:  E(RB3LYP) =  -544.971610472     A.U. after   12 cycles
 SCF Done:  E(RB3LYP) =  -544.971665052     A.U. after   12 cycles
 SCF Done:  E(RB3LYP) =  -544.971726459     A.U. after   12 cycles
 SCF Done:  E(RB3LYP) =  -544.974894008     A.U. after   11 cycles
 SCF Done:  E(RB3LYP) =  -544.974909273     A.U. after   11 cycles
 SCF Done:  E(RB3LYP) =  -544.974922000     A.U. after   11 cycles
 SCF Done:  E(RB3LYP) =  -544.974932541     A.U. after   11 cycles
 SCF Done:  E(RB3LYP) =  -544.974941159     A.U. after   11 cycles
 SCF Done:  E(RB3LYP) =  -544.974947957     A.U. after   11 cycles
 SCF Done:  E(RB3LYP) =  -544.974953061     A.U. after   11 cycles
 SCF Done:  E(RB3LYP) =  -544.974956266     A.U. after   11 cycles
 SCF Done:  E(RB3LYP) =  -544.974957450     A.U. after   11 cycles
 SCF Done:  E(RB3LYP) =  -544.974958101     A.U. after   11 cycles

                          Input orientation:
 ---------------------------------------------------------------------
 Center     Atomic      Atomic             Coordinates (Angstroms)
 Number     Number       Type             X           Y           Z
 ---------------------------------------------------------------------
      1          6           0        2.631689    0.564110   -0.000001
      2          6           0        1.548369    1.498782   -0.000001
      3          6           0        0.322490    0.836291    0.000000
      4          6           0        0.075305   -0.566491    0.000000
      5          6           0        1.175870   -1.398702   -0.000001
      6          6           0        2.464080   -0.817948   -0.000002
      7          1           0        3.654114    0.953026   -0.000001
      8          7           0       -0.760159    1.745287   -0.000001
      9          7           0       -1.467669    2.604868   -0.000001
     10          1           0        3.332305   -1.480667   -0.000003
     11          1           0        1.029871   -2.476057   -0.000001
     12          7           0       -1.271499   -1.142707    0.000002
     13          8           0       -2.214859   -0.345098    0.000007
     14          8           0       -1.391701   -2.361165   -0.000002
 ---------------------------------------------------------------------

 Alpha  occ. eigenvalues --  -19.21249 -19.21243 -14.60110 -14.55247 -14.50877
 Alpha  occ. eigenvalues --  -10.29738 -10.28896 -10.24232 -10.23523 -10.22261
 Alpha  occ. eigenvalues --  -10.18739  -1.26256  -1.20440  -1.08990  -0.93596
 Alpha  occ. eigenvalues --   -0.86035  -0.82652  -0.73979  -0.70301  -0.63736
 Alpha  occ. eigenvalues --   -0.60808  -0.57164  -0.57024  -0.55251  -0.54490
 Alpha  occ. eigenvalues --   -0.54353  -0.53136  -0.49506  -0.47173  -0.43081
 Alpha  occ. eigenvalues --   -0.40921  -0.39155  -0.34758  -0.34623  -0.32964
 Alpha  occ. eigenvalues --   -0.30892  -0.29062  -0.21946
 Alpha virt. eigenvalues --   -0.14194  -0.10560  -0.10056  -0.02696  -0.01622
 Alpha virt. eigenvalues --   -0.01594   0.00544   0.01173   0.02898   0.03423
 Alpha virt. eigenvalues --    0.03909   0.04882   0.06204   0.06932   0.07579

 Mulliken atomic charges:
              1
     1  C    0.695557
     2  C   -1.451000
     3  C    1.469305
     4  C    0.870067
     5  C    1.044359
     6  C    0.566091
     7  H   -0.681836
     8  N    0.485337
     9  N   -0.831761
    10  H   -0.719611
    11  H   -0.779724
    12  N    0.708688
    13  O   -0.699340
    14  O   -0.676132
 Sum of Mulliken atomic charges =   0.00000

 Dipole moment (field-independent basis, Debye):
    X=              1.5188    Y=             -0.7870    Z=              0.0000  Tot=              1.7106
 Quadrupole moment (field-independent basis, Debye-Ang):
   XX=            -63.7624   YY=            -67.5384   ZZ=            -61.6149
   XY=            -11.8332   XZ=              0.0000   YZ=              0.0000

  Exact polarizability:   0.000   0.000   0.000   0.000   0.000   0.000
 Approx polarizability: 277.770 -39.395 249.646   0.000   0.000  90.344

 Normal termination of Gaussian 09 at Fri Dec 21 10:24:56 2018.
