 Gaussian 09, Revision B.01,
 Gaussian 09:  EM64L-G09RevB.01 12-Aug-2010

 ----------------------------------------------------------------------
 # rb3lyp/aug-cc-pVDZ irc=(calcfc,maxcycle=1000,maxpoints=10000,stepsiz
 e=1) scf=(xqc,maxcycle=1000) nosymm
 ----------------------------------------------------------------------

 ----------------
 3-NO2-C6H3-N2-v1
 ----------------
 Symbolic Z-matrix:
 Charge =  0 Multiplicity = 1

 SCF Done:  E(RB3LYP) =  -544.974270211     A.U. after   19 cycles
 SCF Done:  E(RB3LYP) =  -544.974274834     A.U. after   13 cycles
 SCF Done:  E(RB3LYP) =  -544.974287873     A.U. after   12 cycles
 SCF Done:  E(RB3LYP) =  -544.974309833     A.U. after   13 cycles
 SCF Done:  E(RB3LYP) =  -544.974340424     A.U. after   12 cycles
 SCF Done:  E(RB3LYP) =  -544.974379703     A.U. after   12 cycles
 SCF Done:  E(RB3LYP) =  -544.974427639     A.U. after   12 cycles
 SCF Done:  E(RB3LYP) =  -544.974484173     A.U. after   12 cycles
 SCF Done:  E(RB3LYP) =  -544.974549225     A.U. after   12 cycles
 SCF Done:  E(RB3LYP) =  -544.974622695     A.U. after   12 cycles
 SCF Done:  E(RB3LYP) =  -544.977449067     A.U. after   11 cycles
 SCF Done:  E(RB3LYP) =  -544.977456660     A.U. after   11 cycles
 SCF Done:  E(RB3LYP) =  -544.977464188     A.U. after   11 cycles
 SCF Done:  E(RB3LYP) =  -544.977470904     A.U. after   11 cycles
 SCF Done:  E(RB3LYP) =  -544.977476493     A.U. after   11 cycles
 SCF Done:  E(RB3LYP) =  -544.977481085     A.U. after   11 cycles
 SCF Done:  E(RB3LYP) =  -544.977484753     A.U. after   11 cycles
 SCF Done:  E(RB3LYP) =  -544.977487514     A.U. after   11 cycles
 SCF Done:  E(RB3LYP) =  -544.977489372     A.U. after   11 cycles
 SCF Done:  E(RB3LYP) =  -544.977490234     A.U. after   12 cycles

                          Input orientation:
 ---------------------------------------------------------------------
 Center     Atomic      Atomic             Coordinates (Angstroms)
 Number     Number       Type             X           Y           Z
 ---------------------------------------------------------------------
      1          6           0        0.466284    2.154466    0.000000
      2          6           0        1.716674    1.463483    0.000000
      3          6           0        1.487323    0.077288    0.000000
      4          6           0        0.286038   -0.670481    0.000000
      5          6           0       -0.851285    0.110261    0.000000
      6          6           0       -0.774068    1.522824    0.000000
      7          1           0        0.472278    3.247815    0.000000
      8          1           0        0.231918   -1.757263    0.000000
      9          7           0        2.680826   -0.666030    0.000001
     10          7           0        3.670720   -1.180002   -0.000001
     11          1           0       -1.704532    2.089455    0.000000
     12          7           0       -2.166182   -0.552434    0.000000
     13          8           0       -3.163369    0.163525    0.000000
     14          8           0       -2.187012   -1.781953    0.000000
 ---------------------------------------------------------------------

 Alpha  occ. eigenvalues --  -19.20133 -19.19999 -14.58933 -14.56341 -14.52230
 Alpha  occ. eigenvalues --  -10.29799 -10.27624 -10.26078 -10.23981 -10.21859
 Alpha  occ. eigenvalues --  -10.19183  -1.25094  -1.21679  -1.07828  -0.93893
 Alpha  occ. eigenvalues --   -0.87809  -0.80566  -0.75255  -0.70516  -0.63410
 Alpha  occ. eigenvalues --   -0.59732  -0.57088  -0.56832  -0.55733  -0.55543
 Alpha  occ. eigenvalues --   -0.53550  -0.52599  -0.50016  -0.47487  -0.46005
 Alpha  occ. eigenvalues --   -0.41184  -0.38692  -0.33617  -0.33371  -0.31664
 Alpha  occ. eigenvalues --   -0.31246  -0.29152  -0.22229
 Alpha virt. eigenvalues --   -0.13322  -0.11878  -0.11235  -0.03429  -0.02156
 Alpha virt. eigenvalues --   -0.00757   0.00120   0.01548   0.02728   0.03244
 Alpha virt. eigenvalues --    0.03246   0.04857   0.05744   0.06195   0.07463

 Mulliken atomic charges:
              1
     1  C    0.681612
     2  C   -1.431056
     3  C    0.978724
     4  C    1.078211
     5  C    0.990562
     6  C    0.915656
     7  H   -0.671745
     8  H   -0.793450
     9  N    0.518825
    10  N   -0.777517
    11  H   -0.798135
    12  N    0.658657
    13  O   -0.677310
    14  O   -0.673036
 Sum of Mulliken atomic charges =   0.00000

 Dipole moment (field-independent basis, Debye):
    X=              2.7405    Y=             -1.3937    Z=              0.0000  Tot=              3.0746
 Quadrupole moment (field-independent basis, Debye-Ang):
   XX=            -73.5157   YY=            -63.2625   ZZ=            -61.6184
   XY=            -13.4916   XZ=              0.0000   YZ=              0.0000

  Exact polarizability:   0.000   0.000   0.000   0.000   0.000   0.000
 Approx polarizability: 280.314 -48.068 232.819   0.000   0.000  90.228

 Normal termination of Gaussian 09 at Fri Dec 21 23:27:31 2018.
