 Gaussian 09, Revision B.01,
 Gaussian 09:  EM64L-G09RevB.01 12-Aug-2010

 ----------------------------------------------------------------------
 # rb3lyp/aug-cc-pVDZ irc=(calcfc,maxcycle=1000,maxpoints=10000,stepsiz
 e=1) scf=(xqc,maxcycle=1000) nosymm
 ----------------------------------------------------------------------

 ----------------
 3-NO2-C6H3-N2-v2
 ----------------
 Symbolic Z-matrix:
 Charge =  0 Multiplicity = 1

 SCF Done:  E(RB3LYP) =  -544.978606842     A.U. after   19 cycles
 SCF Done:  E(RB3LYP) =  -544.978611029     A.U. after   12 cycles
 SCF Done:  E(RB3LYP) =  -544.978623459     A.U. after   12 cycles
 SCF Done:  E(RB3LYP) =  -544.978644075     A.U. after   12 cycles
 SCF Done:  E(RB3LYP) =  -544.978672617     A.U. after   12 cycles
 SCF Done:  E(RB3LYP) =  -544.978708883     A.U. after   12 cycles
 SCF Done:  E(RB3LYP) =  -544.978752617     A.U. after   12 cycles
 SCF Done:  E(RB3LYP) =  -544.978803527     A.U. after   12 cycles
 SCF Done:  E(RB3LYP) =  -544.978861277     A.U. after   12 cycles
 SCF Done:  E(RB3LYP) =  -544.978925503     A.U. after   12 cycles
 SCF Done:  E(RB3LYP) =  -545.014612631     A.U. after   10 cycles
 SCF Done:  E(RB3LYP) =  -545.014623175     A.U. after    9 cycles
 SCF Done:  E(RB3LYP) =  -545.014633501     A.U. after   10 cycles
 SCF Done:  E(RB3LYP) =  -545.014643734     A.U. after    9 cycles
 SCF Done:  E(RB3LYP) =  -545.014653756     A.U. after   10 cycles
 SCF Done:  E(RB3LYP) =  -545.014663665     A.U. after    9 cycles
 SCF Done:  E(RB3LYP) =  -545.014673378     A.U. after   10 cycles
 SCF Done:  E(RB3LYP) =  -545.014682984     A.U. after    9 cycles
 SCF Done:  E(RB3LYP) =  -545.014692394     A.U. after   10 cycles
 SCF Done:  E(RB3LYP) =  -545.014701712     A.U. after    9 cycles

                          Input orientation:
 ---------------------------------------------------------------------
 Center     Atomic      Atomic             Coordinates (Angstroms)
 Number     Number       Type             X           Y           Z
 ---------------------------------------------------------------------
      1          6           0        0.146184    2.333042    0.000005
      2          6           0        1.404951    1.678409    0.000055
      3          6           0        1.198890    0.317810    0.000078
      4          6           0        0.169825   -0.397587    0.000067
      5          6           0       -1.073809    0.213540    0.000015
      6          6           0       -1.066345    1.622696   -0.000016
      7          1           0        0.126003    3.424084   -0.000018
      8          7           0        4.002198   -0.977356   -0.000041
      9          7           0        4.078296   -2.078763   -0.000096
     10          1           0       -2.017249    2.152524   -0.000058
     11          7           0       -2.338453   -0.544282   -0.000006
     12          8           0       -3.385265    0.101126   -0.000107
     13          8           0       -2.257225   -1.766327    0.000080
     14          1           0        2.352945    2.210312    0.000070
 ---------------------------------------------------------------------

 Alpha  occ. eigenvalues --  -19.19569 -19.19440 -14.58216 -14.45613 -14.45458
 Alpha  occ. eigenvalues --  -10.29274 -10.26454 -10.24965 -10.24555 -10.24358
 Alpha  occ. eigenvalues --  -10.23649  -1.24495  -1.14135  -1.07306  -0.92363
 Alpha  occ. eigenvalues --   -0.83327  -0.79072  -0.73448  -0.63372  -0.61646
 Alpha  occ. eigenvalues --   -0.57170  -0.56904  -0.54958  -0.53639  -0.53199
 Alpha  occ. eigenvalues --   -0.49715  -0.47867  -0.47817  -0.44651  -0.44370
 Alpha  occ. eigenvalues --   -0.43447  -0.42464  -0.33473  -0.32961  -0.31554
 Alpha  occ. eigenvalues --   -0.30921  -0.30496  -0.30065
 Alpha virt. eigenvalues --   -0.11895  -0.11543  -0.04760  -0.04111  -0.03920
 Alpha virt. eigenvalues --   -0.02822  -0.01852   0.00375   0.01401   0.03445
 Alpha virt. eigenvalues --    0.03588   0.04070   0.04935   0.06371   0.06671

 Mulliken atomic charges:
              1
     1  C    0.662709
     2  C    0.834525
     3  C    0.202247
     4  C   -0.652555
     5  C    0.749191
     6  C    1.087173
     7  H   -0.738084
     8  N    0.158138
     9  N   -0.166217
    10  H   -0.793083
    11  N    0.678664
    12  O   -0.689109
    13  O   -0.662977
    14  H   -0.670621
 Sum of Mulliken atomic charges =   0.00000

 Dipole moment (field-independent basis, Debye):
    X=              3.7548    Y=              4.0972    Z=              0.0000  Tot=              5.5574
 Quadrupole moment (field-independent basis, Debye-Ang):
   XX=            -69.1861   YY=            -58.5750   ZZ=            -61.7480
   XY=             -1.9883   XZ=             -0.0001   YZ=              0.0002

  Exact polarizability:   0.000   0.000   0.000   0.000   0.000   0.000
 Approx polarizability: 218.166  16.539 226.503   0.004  -0.003  85.492

 Normal termination of Gaussian 09 at Sat Dec 22 09:37:52 2018.
