 Gaussian 09, Revision B.01,
 Gaussian 09:  EM64L-G09RevB.01 12-Aug-2010

 ----------------------------------------------------------------------
 # rb3lyp/aug-cc-pVDZ irc=(calcfc,maxcycle=1000,maxpoints=10000,stepsiz
 e=1) scf=(xqc,maxcycle=1000) nosymm
 ----------------------------------------------------------------------

 ---------
 4-Br-C6H3
 ---------
 Symbolic Z-matrix:
 Charge =  0 Multiplicity = 1

 SCF Done:  E(RB3LYP) =  -2913.99478781     A.U. after   18 cycles
 SCF Done:  E(RB3LYP) =  -2913.99479259     A.U. after   12 cycles
 SCF Done:  E(RB3LYP) =  -2913.99480691     A.U. after   12 cycles
 SCF Done:  E(RB3LYP) =  -2913.99483077     A.U. after   12 cycles
 SCF Done:  E(RB3LYP) =  -2913.99486408     A.U. after   12 cycles
 SCF Done:  E(RB3LYP) =  -2913.99490675     A.U. after   12 cycles
 SCF Done:  E(RB3LYP) =  -2913.99495868     A.U. after   12 cycles
 SCF Done:  E(RB3LYP) =  -2913.99501974     A.U. after   12 cycles
 SCF Done:  E(RB3LYP) =  -2913.99508976     A.U. after   12 cycles
 SCF Done:  E(RB3LYP) =  -2913.99516859     A.U. after   12 cycles
 SCF Done:  E(RB3LYP) =  -2913.99969608     A.U. after   11 cycles
 SCF Done:  E(RB3LYP) =  -2913.99970370     A.U. after   11 cycles
 SCF Done:  E(RB3LYP) =  -2913.99971025     A.U. after   11 cycles
 SCF Done:  E(RB3LYP) =  -2913.99971584     A.U. after   11 cycles
 SCF Done:  E(RB3LYP) =  -2913.99972041     A.U. after   11 cycles
 SCF Done:  E(RB3LYP) =  -2913.99972401     A.U. after   11 cycles
 SCF Done:  E(RB3LYP) =  -2913.99972655     A.U. after   11 cycles
 SCF Done:  E(RB3LYP) =  -2913.99972800     A.U. after   11 cycles
 SCF Done:  E(RB3LYP) =  -2913.99972800     A.U. after   11 cycles
 SCF Done:  E(RB3LYP) =  -2913.99972840     A.U. after   10 cycles

                          Input orientation:
 ---------------------------------------------------------------------
 Center     Atomic      Atomic             Coordinates (Angstroms)
 Number     Number       Type             X           Y           Z
 ---------------------------------------------------------------------
      1          6           0       -1.235854   -0.229386    0.000000
      2          6           0       -1.335133   -1.648237    0.000000
      3          6           0       -0.054059   -2.231103    0.000000
      4          6           0        1.233686   -1.628369    0.000000
      5          6           0        1.239420   -0.250348    0.000000
      6          6           0       -0.007387    0.425216    0.000000
      7          1           0       -2.145553    0.375656    0.000000
      8          1           0        2.158505   -2.207326    0.000000
      9          1           0        2.172333    0.308613    0.000000
     10          7           0       -0.092473   -3.623542    0.000000
     11          7           0       -0.190469   -4.737051    0.000000
     12         35           0        0.045721    2.348773    0.000000
 ---------------------------------------------------------------------

 Alpha  occ. eigenvalues -- -482.89155 -62.54262 -56.35959 -56.35634 -56.35609
 Alpha  occ. eigenvalues --  -14.54690 -14.50305 -10.27973 -10.26913 -10.24149
 Alpha  occ. eigenvalues --  -10.22636 -10.20629 -10.17765  -8.72329  -6.55291
 Alpha  occ. eigenvalues --   -6.54111  -6.54032  -2.66336  -2.66010  -2.65951
 Alpha  occ. eigenvalues --   -2.65009  -2.65008  -1.19869  -0.92168  -0.86307
 Alpha  occ. eigenvalues --   -0.79778  -0.76845  -0.68588  -0.63990  -0.58078
 Alpha  occ. eigenvalues --   -0.55190  -0.54303  -0.53113  -0.49061  -0.47066
 Alpha  occ. eigenvalues --   -0.45115  -0.41426  -0.40470  -0.37143  -0.33514
 Alpha  occ. eigenvalues --   -0.30171  -0.27601  -0.26979  -0.20803
 Alpha virt. eigenvalues --   -0.11717  -0.10375  -0.03463  -0.02745  -0.01251
 Alpha virt. eigenvalues --   -0.01125   0.00404   0.01284   0.03374   0.04003
 Alpha virt. eigenvalues --    0.04177   0.04619   0.06439   0.06509   0.07366

 Mulliken atomic charges:
              1
     1  C    0.636513
     2  C   -1.546879
     3  C    1.123170
     4  C    0.998335
     5  C    0.899778
     6  C    0.361756
     7  H   -0.664562
     8  H   -0.788265
     9  H   -0.761651
    10  N    0.486123
    11  N   -0.853063
    12  Br   0.108745
 Sum of Mulliken atomic charges =   0.00000

 Dipole moment (field-independent basis, Debye):
    X=              3.6461    Y=             -2.0250    Z=              0.0000  Tot=              4.1707
 Quadrupole moment (field-independent basis, Debye-Ang):
   XX=            -65.8077   YY=            -57.4052   ZZ=            -65.8584
   XY=             -8.4122   XZ=              0.0000   YZ=              0.0000

  Exact polarizability:   0.000   0.000   0.000   0.000   0.000   0.000
 Approx polarizability: 180.701   8.490 365.301   0.000   0.000 102.784

 Normal termination of Gaussian 09 at Sat Dec 22 18:45:16 2018.
