 Gaussian 09, Revision B.01,
 Gaussian 09:  EM64L-G09RevB.01 12-Aug-2010

 ----------------------------------------------------------------------
 # rb3lyp/aug-cc-pVDZ irc=(calcfc,maxcycle=1000,maxpoints=10000,stepsiz
 e=1) scf=(xqc,maxcycle=1000) nosymm
 ----------------------------------------------------------------------

 -----------
 4-CH3O-C6H3
 -----------
 Symbolic Z-matrix:
 Charge =  0 Multiplicity = 1

 SCF Done:  E(RB3LYP) =  -454.976654841     A.U. after   18 cycles
 SCF Done:  E(RB3LYP) =  -454.976659818     A.U. after   12 cycles
 SCF Done:  E(RB3LYP) =  -454.976674729     A.U. after   11 cycles
 SCF Done:  E(RB3LYP) =  -454.976699852     A.U. after   12 cycles
 SCF Done:  E(RB3LYP) =  -454.976735024     A.U. after   12 cycles
 SCF Done:  E(RB3LYP) =  -454.976780277     A.U. after   12 cycles
 SCF Done:  E(RB3LYP) =  -454.976835562     A.U. after   12 cycles
 SCF Done:  E(RB3LYP) =  -454.976900803     A.U. after   12 cycles
 SCF Done:  E(RB3LYP) =  -454.976975889     A.U. after   12 cycles
 SCF Done:  E(RB3LYP) =  -454.977060673     A.U. after   12 cycles
 SCF Done:  E(RB3LYP) =  -455.014288647     A.U. after    9 cycles
 SCF Done:  E(RB3LYP) =  -455.014292957     A.U. after    9 cycles
 SCF Done:  E(RB3LYP) =  -455.014297174     A.U. after    9 cycles
 SCF Done:  E(RB3LYP) =  -455.014301336     A.U. after    9 cycles
 SCF Done:  E(RB3LYP) =  -455.014305408     A.U. after    9 cycles
 SCF Done:  E(RB3LYP) =  -455.014309430     A.U. after    9 cycles
 SCF Done:  E(RB3LYP) =  -455.014313365     A.U. after    9 cycles
 SCF Done:  E(RB3LYP) =  -455.014317245     A.U. after    9 cycles
 SCF Done:  E(RB3LYP) =  -455.014321040     A.U. after    9 cycles
 SCF Done:  E(RB3LYP) =  -455.014324781     A.U. after    9 cycles

                          Input orientation:
 ---------------------------------------------------------------------
 Center     Atomic      Atomic             Coordinates (Angstroms)
 Number     Number       Type             X           Y           Z
 ---------------------------------------------------------------------
      1          6           0       -1.012959   -0.933519   -0.000002
      2          6           0        0.391979   -1.083326   -0.000003
      3          6           0        1.026706    0.148525   -0.000003
      4          6           0        0.472851    1.272779   -0.000002
      5          6           0       -0.879047    1.549016   -0.000002
      6          6           0       -1.633523    0.341898   -0.000001
      7          1           0       -1.623503   -1.833819   -0.000002
      8          1           0        0.869562   -2.061349   -0.000003
      9          1           0       -1.373038    2.518190   -0.000001
     10          7           0        4.231318   -0.883393    0.000002
     11          7           0        4.894961   -0.001049    0.000009
     12          8           0       -2.989105    0.524118    0.000000
     13          6           0       -3.834987   -0.621123    0.000000
     14          1           0       -4.858583   -0.233853    0.000001
     15          1           0       -3.675010   -1.234632    0.900049
     16          1           0       -3.675011   -1.234632   -0.900050
 ---------------------------------------------------------------------

 Alpha  occ. eigenvalues --  -19.19048 -14.44310 -14.44155 -10.26766 -10.25139
 Alpha  occ. eigenvalues --  -10.22867 -10.21933 -10.20764 -10.20563 -10.20088
 Alpha  occ. eigenvalues --   -1.12824  -1.08126  -0.87652  -0.77524  -0.75597
 Alpha  occ. eigenvalues --   -0.70440  -0.63190  -0.58234  -0.55678  -0.53662
 Alpha  occ. eigenvalues --   -0.49773  -0.48092  -0.47214  -0.46532  -0.46521
 Alpha  occ. eigenvalues --   -0.45100  -0.43223  -0.42998  -0.40883  -0.39796
 Alpha  occ. eigenvalues --   -0.35160  -0.34230  -0.27279  -0.27029  -0.23787
 Alpha virt. eigenvalues --   -0.08828  -0.03691  -0.03278  -0.03066  -0.01384
 Alpha virt. eigenvalues --    0.00497   0.00734   0.00902   0.02037   0.02594
 Alpha virt. eigenvalues --    0.03210   0.04003   0.05353   0.06105   0.06471

 Mulliken atomic charges:
              1
     1  C    1.315406
     2  C    1.059816
     3  C    0.078424
     4  C   -0.980147
     5  C    0.902686
     6  C    0.568815
     7  H   -1.242491
     8  H   -0.678236
     9  H   -0.656797
    10  N    0.103311
    11  N   -0.106240
    12  O   -0.630921
    13  C    1.202966
    14  H   -0.551031
    15  H   -0.192779
    16  H   -0.192779
 Sum of Mulliken atomic charges =   0.00000

 Dipole moment (field-independent basis, Debye):
    X=             -2.1397    Y=             -1.9151    Z=              0.0000  Tot=              2.8716
 Quadrupole moment (field-independent basis, Debye-Ang):
   XX=            -52.3502   YY=            -54.8617   ZZ=            -60.0768
   XY=              1.9033   XZ=              0.0000   YZ=              0.0000

  Exact polarizability:   0.000   0.000   0.000   0.000   0.000   0.000
 Approx polarizability: 190.254 -10.373 212.867   0.000   0.000  95.590

 Normal termination of Gaussian 09 at Sun Dec 23 07:33:46 2018.
