 Gaussian 09, Revision B.01,
 Gaussian 09:  EM64L-G09RevB.01 12-Aug-2010

 ----------------------------------------------------------------------
 # rb3lyp/aug-cc-pVDZ irc=(calcfc,maxcycle=1000,maxpoints=10000,stepsiz
 e=1) scf=(xqc,maxcycle=1000) nosymm
 ----------------------------------------------------------------------

 -----------
 4-HOOC-C6H3
 -----------
 Symbolic Z-matrix:
 Charge =  0 Multiplicity = 1

 SCF Done:  E(RB3LYP) =  -529.043817945     A.U. after   19 cycles
 SCF Done:  E(RB3LYP) =  -529.043822384     A.U. after   12 cycles
 SCF Done:  E(RB3LYP) =  -529.043835114     A.U. after   12 cycles
 SCF Done:  E(RB3LYP) =  -529.043857593     A.U. after   12 cycles
 SCF Done:  E(RB3LYP) =  -529.043888981     A.U. after   12 cycles
 SCF Done:  E(RB3LYP) =  -529.043929543     A.U. after   12 cycles
 SCF Done:  E(RB3LYP) =  -529.043979264     A.U. after   12 cycles
 SCF Done:  E(RB3LYP) =  -529.044038145     A.U. after   12 cycles
 SCF Done:  E(RB3LYP) =  -529.044106119     A.U. after   12 cycles
 SCF Done:  E(RB3LYP) =  -529.044183117     A.U. after   12 cycles
 SCF Done:  E(RB3LYP) =  -529.046537715     A.U. after   11 cycles
 SCF Done:  E(RB3LYP) =  -529.046543119     A.U. after   11 cycles
 SCF Done:  E(RB3LYP) =  -529.046548981     A.U. after   12 cycles
 SCF Done:  E(RB3LYP) =  -529.046553887     A.U. after   11 cycles
 SCF Done:  E(RB3LYP) =  -529.046558406     A.U. after   11 cycles
 SCF Done:  E(RB3LYP) =  -529.046561037     A.U. after   11 cycles
 SCF Done:  E(RB3LYP) =  -529.046562998     A.U. after   11 cycles
 SCF Done:  E(RB3LYP) =  -529.046563426     A.U. after   11 cycles
 SCF Done:  E(RB3LYP) =  -529.046563405     A.U. after   12 cycles
 SCF Done:  E(RB3LYP) =  -529.046563990     A.U. after   11 cycles

                          Input orientation:
 ---------------------------------------------------------------------
 Center     Atomic      Atomic             Coordinates (Angstroms)
 Number     Number       Type             X           Y           Z
 ---------------------------------------------------------------------
      1          6           0        0.233133   -1.233266    0.000000
      2          6           0       -1.195008   -1.290774    0.000000
      3          6           0       -1.710199    0.011916    0.000000
      4          6           0       -1.059929    1.276138    0.000000
      5          6           0        0.316843    1.226372    0.000000
      6          6           0        0.964679   -0.041444    0.000000
      7          1           0        0.804583   -2.163679    0.000000
      8          1           0       -1.606419    2.219819    0.000000
      9          1           0        0.903806    2.141031    0.000000
     10          7           0       -3.115295    0.027716    0.000000
     11          7           0       -4.229656   -0.036988    0.000000
     12          6           0        2.460589   -0.125950    0.000000
     13          8           0        3.100012   -1.155120    0.000000
     14          8           0        3.061463    1.096362    0.000000
     15          1           0        4.017714    0.930868    0.000000
 ---------------------------------------------------------------------

 Alpha  occ. eigenvalues --  -19.21015 -19.15281 -14.55015 -14.50825 -10.33592
 Alpha  occ. eigenvalues --  -10.28150 -10.23672 -10.23183 -10.22194 -10.20562
 Alpha  occ. eigenvalues --  -10.17426  -1.20317  -1.12528  -1.03570  -0.91887
 Alpha  occ. eigenvalues --   -0.84911  -0.77346  -0.73391  -0.64232  -0.64027
 Alpha  occ. eigenvalues --   -0.57628  -0.55481  -0.55234  -0.53466  -0.51929
 Alpha  occ. eigenvalues --   -0.50191  -0.46784  -0.46730  -0.46011  -0.42372
 Alpha  occ. eigenvalues --   -0.42118  -0.39184  -0.37199  -0.34199  -0.29866
 Alpha  occ. eigenvalues --   -0.29575  -0.27177  -0.20645
 Alpha virt. eigenvalues --   -0.12585  -0.10589  -0.04520  -0.03104  -0.02144
 Alpha virt. eigenvalues --   -0.01034   0.01242   0.02095   0.03092   0.03523
 Alpha virt. eigenvalues --    0.04283   0.04399   0.05678   0.05741   0.06570

 Mulliken atomic charges:
              1
     1  C    0.554852
     2  C   -1.784988
     3  C    1.069422
     4  C    0.740856
     5  C    1.223568
     6  C    1.693214
     7  H   -0.907791
     8  H   -0.809725
     9  H   -0.931545
    10  N    0.514713
    11  N   -0.908062
    12  C    0.402626
    13  O   -0.536962
    14  O   -0.586804
    15  H    0.266625
 Sum of Mulliken atomic charges =   0.00000

 Dipole moment (field-independent basis, Debye):
    X=             -1.6631    Y=              5.0056    Z=              0.0000  Tot=              5.2746
 Quadrupole moment (field-independent basis, Debye-Ang):
   XX=            -53.4583   YY=            -67.5122   ZZ=            -63.2335
   XY=             -0.4928   XZ=              0.0000   YZ=              0.0000

  Exact polarizability:   0.000   0.000   0.000   0.000   0.000   0.000
 Approx polarizability: 310.600 -12.511 195.262   0.000   0.000  95.165

 Normal termination of Gaussian 09 at Sun Dec 23 20:11:39 2018.
