 Gaussian 09, Revision B.01,
 Gaussian 09:  EM64L-G09RevB.01 12-Aug-2010

 ----------------------------------------------------------------------
 # rb3lyp/aug-cc-pVDZ irc=(calcfc,maxcycle=1000,maxpoints=10000,stepsiz
 e=1) scf=(xqc,maxcycle=1000) nosymm
 ----------------------------------------------------------------------

 ----------
 4-NO2-C6H3
 ----------
 Symbolic Z-matrix:
 Charge =  0 Multiplicity = 1

 SCF Done:  E(RB3LYP) =  -544.973410485     A.U. after   19 cycles
 SCF Done:  E(RB3LYP) =  -544.973414729     A.U. after   12 cycles
 SCF Done:  E(RB3LYP) =  -544.973427093     A.U. after   12 cycles
 SCF Done:  E(RB3LYP) =  -544.973447912     A.U. after   12 cycles
 SCF Done:  E(RB3LYP) =  -544.973476646     A.U. after   12 cycles
 SCF Done:  E(RB3LYP) =  -544.973513132     A.U. after   12 cycles
 SCF Done:  E(RB3LYP) =  -544.973557087     A.U. after   12 cycles
 SCF Done:  E(RB3LYP) =  -544.973608188     A.U. after   12 cycles
 SCF Done:  E(RB3LYP) =  -544.973666072     A.U. after   12 cycles
 SCF Done:  E(RB3LYP) =  -544.973730359     A.U. after   12 cycles
 SCF Done:  E(RB3LYP) =  -545.014261130     A.U. after   10 cycles
 SCF Done:  E(RB3LYP) =  -545.014265295     A.U. after   10 cycles
 SCF Done:  E(RB3LYP) =  -545.014269398     A.U. after   10 cycles
 SCF Done:  E(RB3LYP) =  -545.014273444     A.U. after   10 cycles
 SCF Done:  E(RB3LYP) =  -545.014277428     A.U. after   10 cycles
 SCF Done:  E(RB3LYP) =  -545.014281353     A.U. after   10 cycles
 SCF Done:  E(RB3LYP) =  -545.014285219     A.U. after   10 cycles
 SCF Done:  E(RB3LYP) =  -545.014289018     A.U. after   10 cycles
 SCF Done:  E(RB3LYP) =  -545.014292775     A.U. after   10 cycles
 SCF Done:  E(RB3LYP) =  -545.014296464     A.U. after   10 cycles

                          Input orientation:
 ---------------------------------------------------------------------
 Center     Atomic      Atomic             Coordinates (Angstroms)
 Number     Number       Type             X           Y           Z
 ---------------------------------------------------------------------
      1          6           0       -0.644802   -1.336085    0.000006
      2          6           0        0.728895   -1.180403    0.000007
      3          6           0        1.362423   -0.100683    0.000004
      4          6           0        0.855740    1.191329   -0.000001
      5          6           0       -0.553010    1.161885   -0.000003
      6          6           0       -1.257860   -0.060229    0.000001
      7          1           0       -1.225652   -2.253559    0.000009
      8          1           0        1.423389    2.118791   -0.000003
      9          1           0       -1.121736    2.089346   -0.000007
     10          7           0       -2.736972   -0.014706   -0.000001
     11          8           0       -3.336280   -1.086730    0.000017
     12          8           0       -3.280288    1.086614   -0.000020
     13          7           0        4.638287    0.517379    0.000011
     14          7           0        5.296649   -0.368961   -0.000020
 ---------------------------------------------------------------------

 Alpha  occ. eigenvalues --  -19.19910 -19.19879 -14.58826 -14.45563 -14.45410
 Alpha  occ. eigenvalues --  -10.28056 -10.26387 -10.25916 -10.24571 -10.24248
 Alpha  occ. eigenvalues --  -10.23756  -1.24968  -1.14077  -1.07678  -0.92309
 Alpha  occ. eigenvalues --   -0.83098  -0.79975  -0.71637  -0.65968  -0.60017
 Alpha  occ. eigenvalues --   -0.57536  -0.56935  -0.55385  -0.53759  -0.50458
 Alpha  occ. eigenvalues --   -0.49948  -0.48535  -0.47763  -0.47699  -0.44453
 Alpha  occ. eigenvalues --   -0.43211  -0.42373  -0.33578  -0.33464  -0.31511
 Alpha  occ. eigenvalues --   -0.30873  -0.30477  -0.30003
 Alpha virt. eigenvalues --   -0.11847  -0.11388  -0.06260  -0.04550  -0.04295
 Alpha virt. eigenvalues --   -0.01286  -0.01195   0.00410   0.01637   0.03265
 Alpha virt. eigenvalues --    0.03631   0.03804   0.05159   0.06504   0.06627

 Mulliken atomic charges:
              1
     1  C    0.926292
     2  C   -1.040560
     3  C    0.023390
     4  C    0.998737
     5  C    1.213371
     6  C    0.635874
     7  H   -0.614230
     8  H   -0.665278
     9  H   -0.864128
    10  N    0.746234
    11  O   -0.676282
    12  O   -0.681417
    13  N    0.128963
    14  N   -0.130968
 Sum of Mulliken atomic charges =   0.00000

 Dipole moment (field-independent basis, Debye):
    X=              3.2443    Y=              0.8216    Z=              0.0000  Tot=              3.3467
 Quadrupole moment (field-independent basis, Debye-Ang):
   XX=            -77.3570   YY=            -58.4849   ZZ=            -61.7529
   XY=              3.1969   XZ=              0.0000   YZ=              0.0000

  Exact polarizability:   0.000   0.000   0.000   0.000   0.000   0.000
 Approx polarizability: 205.274  13.726 237.799   0.000  -0.001  85.587

 Normal termination of Gaussian 09 at Mon Dec 24 08:14:12 2018.
