 Gaussian 09, Revision B.01,
 Gaussian 09:  EM64L-G09RevB.01 12-Aug-2010

 ---------------------------------------------------------
 # rb3lyp/aug-cc-pVDZ opt=(ts,noeigen,calcfc) freq=noraman
 ---------------------------------------------------------

 ----------
 2-NO2-C6H3
 ----------
 Symbolic Z-matrix:
 Charge =  0 Multiplicity = 1

 SCF Done:  E(RB3LYP) =  -544.971425852     A.U. after   19 cycles
 SCF Done:  E(RB3LYP) =  -544.971429312     A.U. after   12 cycles
 Optimization completed.
    -- Stationary point found.
 Normal termination of Gaussian 09 at Wed Dec 19 05:30:27 2018.

 ----------------------------------------------------------------------
 #N Geom=AllCheck Guess=TCheck SCRF=Check GenChk RB3LYP/Aug-CC-pVDZ Fre
 q
 ----------------------------------------------------------------------

 2-NO2-C6H3
 ----------
 Redundant internal coordinates taken from checkpoint file:
 2-NO2-C6H3-TS.chk
 Charge =  0 Multiplicity = 1

                         Standard orientation:
 ---------------------------------------------------------------------
 Center     Atomic      Atomic             Coordinates (Angstroms)
 Number     Number       Type             X           Y           Z
 ---------------------------------------------------------------------
      1          6           0        2.600632    0.573940    0.000002
      2          6           0        1.484790    1.456986    0.000000
      3          6           0        0.325944    0.809021    0.000000
      4          6           0        0.032550   -0.560955    0.000000
      5          6           0        1.149130   -1.393559    0.000000
      6          6           0        2.431730   -0.815074    0.000000
      7          1           0        3.617828    0.975054    0.000003
      8          7           0       -0.964285    1.808336   -0.000003
      9          7           0       -1.516179    2.770922   -0.000001
     10          1           0        3.302199   -1.474001    0.000000
     11          1           0        1.003933   -2.471207    0.000000
     12          7           0       -1.312270   -1.134510    0.000001
     13          8           0       -2.260734   -0.342133    0.000005
     14          8           0       -1.429700   -2.353522   -0.000003
 ---------------------------------------------------------------------

 SCF Done:  E(RB3LYP) =  -544.971429312     A.U. after    2 cycles

 The electronic state is 1-A.
 Alpha  occ. eigenvalues --  -19.21062 -19.21015 -14.59923 -14.52600 -14.49978
 Alpha  occ. eigenvalues --  -10.29083 -10.28606 -10.23887 -10.23000 -10.22849
 Alpha  occ. eigenvalues --  -10.18507  -1.26005  -1.18938  -1.08698  -0.92003
 Alpha  occ. eigenvalues --   -0.82659  -0.81209  -0.73198  -0.69093  -0.62942
 Alpha  occ. eigenvalues --   -0.60797  -0.57158  -0.56528  -0.54280  -0.53434
 Alpha  occ. eigenvalues --   -0.53175  -0.51987  -0.49027  -0.47703  -0.42583
 Alpha  occ. eigenvalues --   -0.41098  -0.39928  -0.34574  -0.34514  -0.32650
 Alpha  occ. eigenvalues --   -0.30355  -0.29020  -0.23133
 Alpha virt. eigenvalues --   -0.13127  -0.10610  -0.09339  -0.02459  -0.02182
 Alpha virt. eigenvalues --   -0.01629   0.00409   0.00869   0.01326   0.03266
 Alpha virt. eigenvalues --    0.04069   0.04556   0.05565   0.06361   0.07168

 Mulliken atomic charges:
              1
     1  C    0.598351
     2  C   -1.447452
     3  C    1.406469
     4  C    0.751685
     5  C    1.156812
     6  C    0.553102
     7  H   -0.653522
     8  N    0.496274
     9  N   -0.724751
    10  H   -0.725024
    11  H   -0.781296
    12  N    0.746592
    13  O   -0.695669
    14  O   -0.681570
 Sum of Mulliken atomic charges =   0.00000

 Dipole moment (field-independent basis, Debye):
    X=              1.7056    Y=             -0.1454    Z=              0.0000  Tot=              1.7118
 Quadrupole moment (field-independent basis, Debye-Ang):
   XX=            -63.2171   YY=            -65.8635   ZZ=            -61.6889
   XY=            -10.4671   XZ=              0.0000   YZ=              0.0000

  Exact polarizability: 147.873  -4.666 129.946   0.000   0.000  55.995
 Approx polarizability: 280.313 -14.665 239.620   0.000   0.000  88.406

 ******    1 imaginary frequencies (negative Signs) ******

                     1                      2                      3
                     A                      A                      A
 Frequencies --  -394.5524                31.5213                93.6137
 Red. masses --    12.7374                14.0886                 6.1669
 Frc consts  --     1.1683                 0.0082                 0.0318
 IR Inten    --    42.0867                 0.2655                 5.7680

                     4                      5                      6
                     A                      A                      A
 Frequencies --   134.0799               161.4730               257.0795
 Red. masses --     7.4871                13.4441                 7.0110
 Frc consts  --     0.0793                 0.2065                 0.2730
 IR Inten    --     0.3734                 3.9935                 0.2723

                     7                      8                      9
                     A                      A                      A
 Frequencies --   265.2352               383.2560               392.1537
 Red. masses --     8.2769                10.8743                13.4751
 Frc consts  --     0.3431                 0.9411                 1.2209
 IR Inten    --     8.8834                 2.6975                 0.8983

                    10                     11                     12
                     A                      A                      A
 Frequencies --   420.5056               486.8557               563.9683
 Red. masses --     5.0292                 4.9008                 8.4848
 Frc consts  --     0.5240                 0.6844                 1.5900
 IR Inten    --     8.7640                 0.8262                 1.7017

                    13                     14                     15
                     A                      A                      A
 Frequencies --   583.8615               646.9696               665.5050
 Red. masses --     9.0311                 3.8067                 9.2014
 Frc consts  --     1.8139                 0.9388                 2.4011
 IR Inten    --     6.2983                 3.6905                 1.0554

                    16                     17                     18
                     A                      A                      A
 Frequencies --   738.5002               829.2146               848.8359
 Red. masses --     3.0661                 1.7382                12.7164
 Frc consts  --     0.9852                 0.7042                 5.3984
 IR Inten    --    31.0489                14.3226                58.5921

                    19                     20                     21
                     A                      A                      A
 Frequencies --   925.1541               939.0373              1007.4761
 Red. masses --     6.5856                 1.3922                 1.4370
 Frc consts  --     3.3210                 0.7233                 0.8594
 IR Inten    --     0.8898                 1.0115                 0.0896

                    22                     23                     24
                     A                      A                      A
 Frequencies --  1041.1586              1080.5350              1172.3643
 Red. masses --     4.6583                 1.7055                 1.4947
 Frc consts  --     2.9752                 1.1732                 1.2104
 IR Inten    --    10.6240                 9.6429                 1.9427

                    25                     26                     27
                     A                      A                      A
 Frequencies --  1227.0616              1367.1169              1380.4408
 Red. masses --     1.8682                 9.7779                 2.5774
 Frc consts  --     1.6574                10.7673                 2.8937
 IR Inten    --    16.9164               324.8566                24.4657

                    28                     29                     30
                     A                      A                      A
 Frequencies --  1393.7908              1463.6205              1552.5124
 Red. masses --     3.2828                 2.9377                 6.2768
 Frc consts  --     3.7574                 3.7077                 8.9137
 IR Inten    --    45.8103                13.6808                87.8799

                    31                     32                     33
                     A                      A                      A
 Frequencies --  1601.2142              1632.9987              2322.9047
 Red. masses --    10.9092                 9.3619                13.9832
 Frc consts  --    16.4794                14.7091                44.4549
 IR Inten    --   186.6632               134.6189                96.7506

                    34                     35                     36
                     A                      A                      A
 Frequencies --  3145.5084              3177.5100              3231.7201
 Red. masses --     1.0878                 1.0930                 1.0927
 Frc consts  --     6.3414                 6.5017                 6.7239
 IR Inten    --    22.1044                24.7160                 3.0151

 - Thermochemistry -
 -------------------
 Temperature   298.150 Kelvin.  Pressure   1.00000 Atm.
 Atom     1 has atomic number  6 and mass  12.00000

 Molecular mass:   149.02253 amu.
 Principal axes and moments of inertia in atomic units:
                           1         2         3
     Eigenvalues --  1225.323151444.527892669.85104
           X            0.99796  -0.06387   0.00000
           Y            0.06387   0.99796   0.00000
           Z            0.00000   0.00000   1.00000
 This molecule is an asymmetric top.
 Rotational symmetry number  1.
 Warning -- assumption of classical behavior for rotation
           may cause significant error
 Rotational temperatures (Kelvin)      0.07069     0.05996     0.03244
 Rotational constants (GHZ):           1.47287     1.24936     0.67597
    1 imaginary frequencies ignored.
 Zero-point vibrational energy     222294.6 (Joules/Mol)
                                   53.12968 (Kcal/Mol)
 Warning -- explicit consideration of  12 degrees of freedom as
           vibrations may cause significant error
 Vibrational temperatures:     45.35   134.69   192.91   232.32   369.88
          (Kelvin)            381.61   551.42   564.22   605.01   700.48
                              811.42   840.05   930.84   957.51  1062.54
                             1193.05  1221.28  1331.09  1351.06  1449.53
                             1497.99  1554.65  1686.77  1765.47  1966.97
                             1986.14  2005.35  2105.82  2233.72  2303.79
                             2349.52  3342.14  4525.68  4571.72  4649.72

 Zero-point correction=                           0.084668 (Hartree/Particle)
 Thermal correction to Energy=                    0.093636
 Thermal correction to Enthalpy=                  0.094580
 Thermal correction to Gibbs Free Energy=         0.049211
 Sum of electronic and zero-point Energies=           -544.886762
 Sum of electronic and thermal Energies=              -544.877793
 Sum of electronic and thermal Enthalpies=            -544.876849
 Sum of electronic and thermal Free Energies=         -544.922219

                     E (Thermal)             CV                S
                      KCal/Mol        Cal/Mol-Kelvin    Cal/Mol-Kelvin
 Total                   58.757             31.751             95.488
 Electronic               0.000              0.000              0.000
 Translational            0.889              2.981             40.907
 Rotational               0.889              2.981             29.937
 Vibrational             56.980             25.789             24.644
 Vibration     1          0.594              1.983              5.731
 Vibration     2          0.603              1.954              3.583
 Vibration     3          0.613              1.919              2.887
 Vibration     4          0.622              1.890              2.532
 Vibration     5          0.667              1.751              1.682
 Vibration     6          0.671              1.737              1.627
 Vibration     7          0.752              1.506              1.026
 Vibration     8          0.760              1.487              0.992
 Vibration     9          0.783              1.426              0.890
 Vibration    10          0.843              1.279              0.692
 Vibration    11          0.920              1.109              0.516
 Vibration    12          0.941              1.066              0.478

 Optimization completed.
    -- Stationary point found.
 Normal termination of Gaussian 09 at Wed Dec 19 05:40:31 2018.
