 Gaussian 09, Revision B.01,
 Gaussian 09:  EM64L-G09RevB.01 12-Aug-2010

 ---------------------------------------------------------
 # rb3lyp/aug-cc-pVDZ opt=(ts,noeigen,calcfc) freq=noraman
 ---------------------------------------------------------

 ----------------
 3-NO2-C6H3-N2-v2
 ----------------
 Symbolic Z-matrix:
 Charge =  0 Multiplicity = 1

 SCF Done:  E(RB3LYP) =  -544.978590443     A.U. after   18 cycles
 SCF Done:  E(RB3LYP) =  -544.978606796     A.U. after   19 cycles
 SCF Done:  E(RB3LYP) =  -544.978606843     A.U. after   10 cycles
 Optimization completed.
    -- Stationary point found.
 Normal termination of Gaussian 09 at Wed Dec 19 09:26:22 2018.

 ----------------------------------------------------------------------
 #N Geom=AllCheck Guess=TCheck SCRF=Check GenChk RB3LYP/Aug-CC-pVDZ Fre
 q
 ----------------------------------------------------------------------

 3-NO2-C6H3-N2-v2
 ----------------
 Redundant internal coordinates taken from checkpoint file:
 3-NO2-C6H3-N2-v2-TS.chk
 Charge =  0 Multiplicity = 1

                         Standard orientation:
 ---------------------------------------------------------------------
 Center     Atomic      Atomic             Coordinates (Angstroms)
 Number     Number       Type             X           Y           Z
 ---------------------------------------------------------------------
      1          6           0        0.379936    2.173122    0.000067
      2          6           0        1.587417    1.474820    0.000042
      3          6           0        1.416693    0.091111   -0.000004
      4          6           0        0.343196   -0.712098   -0.000021
      5          6           0       -0.819443    0.063882    0.000004
      6          6           0       -0.836098    1.463333    0.000040
      7          1           0        0.377802    3.262196    0.000106
      8          7           0        2.788381   -0.729082   -0.000042
      9          7           0        3.521750   -1.564159   -0.000071
     10          1           0       -1.784960    1.996151    0.000048
     11          7           0       -2.156355   -0.629113   -0.000007
     12          8           0       -3.160484    0.086800   -0.000228
     13          8           0       -2.171695   -1.849033    0.000210
     14          1           0        2.557943    1.970972    0.000058
 ---------------------------------------------------------------------

 SCF Done:  E(RB3LYP) =  -544.978606843     A.U. after    1 cycles

 The electronic state is 1-A.
 Alpha  occ. eigenvalues --  -19.17587 -19.17335 -14.55764 -14.54181 -14.51761
 Alpha  occ. eigenvalues --  -10.29341 -10.26061 -10.25161 -10.23425 -10.23347
 Alpha  occ. eigenvalues --  -10.19200  -1.22317  -1.20560  -1.05116  -0.91721
 Alpha  occ. eigenvalues --   -0.83291  -0.80467  -0.71463  -0.71008  -0.62731
 Alpha  occ. eigenvalues --   -0.58081  -0.55750  -0.54930  -0.54132  -0.52671
 Alpha  occ. eigenvalues --   -0.52532  -0.51212  -0.51037  -0.47788  -0.43466
 Alpha  occ. eigenvalues --   -0.41618  -0.41263  -0.31173  -0.30711  -0.30385
 Alpha  occ. eigenvalues --   -0.29151  -0.29060  -0.23905
 Alpha virt. eigenvalues --   -0.12253  -0.12029  -0.09022  -0.03044  -0.02800
 Alpha virt. eigenvalues --   -0.01297  -0.00196   0.01072   0.01777   0.03257
 Alpha virt. eigenvalues --    0.03471   0.04278   0.05378   0.06171   0.06889

 Mulliken atomic charges:
              1
     1  C    0.854613
     2  C    0.975291
     3  C    0.803968
     4  C   -1.179618
     5  C    0.699810
     6  C    1.024790
     7  H   -0.702123
     8  N    0.487867
     9  N   -0.707119
    10  H   -0.819371
    11  N    0.685086
    12  O   -0.709512
    13  O   -0.655037
    14  H   -0.758645
 Sum of Mulliken atomic charges =   0.00000

 Dipole moment (field-independent basis, Debye):
    X=              6.8567    Y=              4.0902    Z=              0.0001  Tot=              7.9840
 Quadrupole moment (field-independent basis, Debye-Ang):
   XX=            -62.1737   YY=            -61.4571   ZZ=            -61.7356
   XY=             -3.8039   XZ=             -0.0006   YZ=              0.0010

  Exact polarizability: 155.752  -9.649 120.529  -0.001  -0.007  55.818
 Approx polarizability: 274.835 -28.968 225.030   0.003  -0.005  88.097

 ******    1 imaginary frequencies (negative Signs) ******

                     1                      2                      3
                     A                      A                      A
 Frequencies --  -413.3194                30.7584               104.3706
 Red. masses --    13.0107                13.5218                 8.6195
 Frc consts  --     1.3096                 0.0075                 0.0553
 IR Inten    --    29.8638                 0.2855                 1.7085

                     4                      5                      6
                     A                      A                      A
 Frequencies --   129.5311               151.2902               264.0068
 Red. masses --    12.8876                 4.9966                 9.0454
 Frc consts  --     0.1274                 0.0674                 0.3715
 IR Inten    --     3.0281                 0.0310                 2.3836

                     7                      8                      9
                     A                      A                      A
 Frequencies --   297.6970               374.8090               439.9531
 Red. masses --     6.7372                10.6586                 8.3424
 Frc consts  --     0.3518                 0.8822                 0.9514
 IR Inten    --     0.8872                 0.4481                 1.9033

                    10                     11                     12
                     A                      A                      A
 Frequencies --   443.9893               510.7417               513.9458
 Red. masses --     5.2718                 6.5742                 8.8020
 Frc consts  --     0.6123                 1.0104                 1.3698
 IR Inten    --     3.8982                 3.8636                 1.2696

                    13                     14                     15
                     A                      A                      A
 Frequencies --   604.8189               653.9262               658.4912
 Red. masses --     8.4815                 3.4595                 8.5525
 Frc consts  --     1.8280                 0.8716                 2.1850
 IR Inten    --     4.2780                 0.7669                30.8274

                    16                     17                     18
                     A                      A                      A
 Frequencies --   750.5138               797.7742               841.6941
 Red. masses --     2.1202                 2.4135                12.9512
 Frc consts  --     0.7036                 0.9050                 5.4059
 IR Inten    --    40.8675                11.9094                40.4249

                    19                     20                     21
                     A                      A                      A
 Frequencies --   928.3683               953.1034              1000.2717
 Red. masses --     1.3860                 7.3386                 1.4079
 Frc consts  --     0.7038                 3.9278                 0.8300
 IR Inten    --     0.7770                 3.0335                 0.2861

                    22                     23                     24
                     A                      A                      A
 Frequencies --  1012.2312              1077.5098              1141.7070
 Red. masses --     5.1517                 1.7317                 2.2115
 Frc consts  --     3.1100                 1.1846                 1.6984
 IR Inten    --    23.8341                14.4170                 3.9342

                    25                     26                     27
                     A                      A                      A
 Frequencies --  1157.1398              1366.1813              1375.4917
 Red. masses --     1.1884                 4.9882                 6.2563
 Frc consts  --     0.9375                 5.4854                 6.9740
 IR Inten    --     6.2441               133.8271                35.2217

                    28                     29                     30
                     A                      A                      A
 Frequencies --  1403.9360              1435.1708              1565.1542
 Red. masses --     2.2186                 4.1828                 6.0949
 Frc consts  --     2.5765                 5.0761                 8.7969
 IR Inten    --   128.0420                 3.8865                26.7495

                    31                     32                     33
                     A                      A                      A
 Frequencies --  1617.0306              1627.5465              2302.8121
 Red. masses --    10.9938                 8.6706                13.9401
 Frc consts  --    16.9369                13.5322                43.5543
 IR Inten    --   190.1954                82.4453               220.8578

                    34                     35                     36
                     A                      A                      A
 Frequencies --  3189.5989              3207.2943              3223.8381
 Red. masses --     1.0911                 1.0935                 1.0943
 Frc consts  --     6.5399                 6.6273                 6.7007
 IR Inten    --     1.5527                 3.1184                 2.5891

 - Thermochemistry -
 -------------------
 Temperature   298.150 Kelvin.  Pressure   1.00000 Atm.
 Atom     1 has atomic number  6 and mass  12.00000

 Molecular mass:   149.02253 amu.
 Principal axes and moments of inertia in atomic units:
                           1         2         3
     Eigenvalues --   839.359962380.977153220.33709
           X            0.99998   0.00644   0.00000
           Y           -0.00644   0.99998   0.00000
           Z            0.00000   0.00000   1.00000
 This molecule is an asymmetric top.
 Rotational symmetry number  1.
 Warning -- assumption of classical behavior for rotation
           may cause significant error
 Rotational temperatures (Kelvin)      0.10319     0.03638     0.02690
 Rotational constants (GHZ):           2.15014     0.75798     0.56042
    1 imaginary frequencies ignored.
 Zero-point vibrational energy     222222.5 (Joules/Mol)
                                   53.11245 (Kcal/Mol)
 Warning -- explicit consideration of  12 degrees of freedom as
           vibrations may cause significant error
 Vibrational temperatures:     44.25   150.17   186.37   217.67   379.85
          (Kelvin)            428.32   539.27   632.99   638.80   734.84
                              739.45   870.20   940.85   947.42  1079.82
                             1147.82  1211.01  1335.71  1371.30  1439.17
                             1456.37  1550.29  1642.66  1664.86  1965.63
                             1979.02  2019.95  2064.89  2251.91  2326.54
                             2341.67  3313.23  4589.12  4614.58  4638.38

 Zero-point correction=                           0.084640 (Hartree/Particle)
 Thermal correction to Energy=                    0.093526
 Thermal correction to Enthalpy=                  0.094470
 Thermal correction to Gibbs Free Energy=         0.049131
 Sum of electronic and zero-point Energies=           -544.893967
 Sum of electronic and thermal Energies=              -544.885081
 Sum of electronic and thermal Enthalpies=            -544.884137
 Sum of electronic and thermal Free Energies=         -544.929475

                     E (Thermal)             CV                S
                      KCal/Mol        Cal/Mol-Kelvin    Cal/Mol-Kelvin
 Total                   58.688             31.694             95.423
 Electronic               0.000              0.000              0.000
 Translational            0.889              2.981             40.907
 Rotational               0.889              2.981             30.244
 Vibrational             56.911             25.732             24.272
 Vibration     1          0.594              1.984              5.780
 Vibration     2          0.605              1.946              3.371
 Vibration     3          0.612              1.924              2.953
 Vibration     4          0.619              1.901              2.656
 Vibration     5          0.671              1.739              1.635
 Vibration     6          0.691              1.678              1.430
 Vibration     7          0.746              1.524              1.060
 Vibration     8          0.800              1.383              0.827
 Vibration     9          0.803              1.374              0.814
 Vibration    10          0.866              1.226              0.632
 Vibration    11          0.869              1.219              0.624
 Vibration    12          0.963              1.022              0.441

 Optimization completed.
    -- Stationary point found.
 Normal termination of Gaussian 09 at Wed Dec 19 09:36:12 2018.
