 Gaussian 09, Revision B.01,
 Gaussian 09:  EM64L-G09RevB.01 12-Aug-2010

 ---------------------------------------------------------
 # rb3lyp/aug-cc-pVDZ opt=(ts,noeigen,calcfc) freq=noraman
 ---------------------------------------------------------

 -----------
 4-CH3O-C6H3
 -----------
 Symbolic Z-matrix:
 Charge =  0 Multiplicity = 1

 SCF Done:  E(RB3LYP) =  -454.976633106     A.U. after   18 cycles
 SCF Done:  E(RB3LYP) =  -454.976654473     A.U. after   14 cycles
 SCF Done:  E(RB3LYP) =  -454.976654842     A.U. after   18 cycles
 Optimization completed.
    -- Stationary point found.
 Normal termination of Gaussian 09 at Wed Dec 19 06:12:16 2018.

 ----------------------------------------------------------------------
 #N Geom=AllCheck Guess=TCheck SCRF=Check GenChk RB3LYP/Aug-CC-pVDZ Fre
 q
 ----------------------------------------------------------------------

 4-CH3O-C6H3
 -----------
 Redundant internal coordinates taken from checkpoint file:
 4-CH3O-C6H3-TS.chk
 Charge =  0 Multiplicity = 1

                         Standard orientation:
 ---------------------------------------------------------------------
 Center     Atomic      Atomic             Coordinates (Angstroms)
 Number     Number       Type             X           Y           Z
 ---------------------------------------------------------------------
      1          6           0       -0.722749   -1.023684   -0.000001
      2          6           0        0.657047   -1.219284   -0.000003
      3          6           0        1.377729   -0.031737   -0.000003
      4          6           0        1.026402    1.255865   -0.000003
      5          6           0       -0.370778    1.419922   -0.000001
      6          6           0       -1.231839    0.301334    0.000000
      7          1           0       -1.383318   -1.886120   -0.000001
      8          1           0        1.108561   -2.212285   -0.000004
      9          1           0       -0.839071    2.407859    0.000000
     10          7           0        2.992866   -0.263755   -0.000003
     11          7           0        4.079234   -0.015661    0.000008
     12          8           0       -2.565957    0.581437    0.000001
     13          6           0       -3.500759   -0.493095    0.000003
     14          1           0       -4.490278   -0.025825    0.000007
     15          1           0       -3.391625   -1.117566    0.900027
     16          1           0       -3.391631   -1.117565   -0.900021
 ---------------------------------------------------------------------

 SCF Done:  E(RB3LYP) =  -454.976654842     A.U. after    2 cycles

 The electronic state is 1-A.
 Alpha  occ. eigenvalues --  -19.18864 -14.50639 -14.48144 -10.26012 -10.25365
 Alpha  occ. eigenvalues --  -10.24966 -10.22208 -10.20480 -10.18989 -10.15823
 Alpha  occ. eigenvalues --   -1.16934  -1.07951  -0.87713  -0.78593  -0.76151
 Alpha  occ. eigenvalues --   -0.71970  -0.65650  -0.62020  -0.56763  -0.53739
 Alpha  occ. eigenvalues --   -0.51591  -0.51415  -0.50465  -0.48164  -0.47904
 Alpha  occ. eigenvalues --   -0.45742  -0.42597  -0.41541  -0.39138  -0.38733
 Alpha  occ. eigenvalues --   -0.34628  -0.34151  -0.25991  -0.23908  -0.20561
 Alpha virt. eigenvalues --   -0.09723  -0.08456  -0.02267  -0.01664  -0.00313
 Alpha virt. eigenvalues --    0.01169   0.01223   0.02143   0.02337   0.03066
 Alpha virt. eigenvalues --    0.03586   0.04653   0.05630   0.05650   0.06775

 Mulliken atomic charges:
              1
     1  C    1.524450
     2  C    0.976481
     3  C    0.986273
     4  C   -1.539030
     5  C    0.818344
     6  C    0.569796
     7  H   -1.207232
     8  H   -0.770891
     9  H   -0.757005
    10  N    0.426463
    11  N   -0.690519
    12  O   -0.630451
    13  C    1.221853
    14  H   -0.554950
    15  H   -0.186791
    16  H   -0.186792
 Sum of Mulliken atomic charges =   0.00000

 Dipole moment (field-independent basis, Debye):
    X=             -0.8855    Y=             -4.1751    Z=              0.0000  Tot=              4.2680
 Quadrupole moment (field-independent basis, Debye-Ang):
   XX=            -48.2631   YY=            -59.4938   ZZ=            -60.0477
   XY=             -1.6641   XZ=              0.0000   YZ=              0.0000

  Exact polarizability: 180.033  -2.111 108.174   0.000   0.000  63.659
 Approx polarizability: 302.114 -26.584 202.073   0.000   0.000  98.045

 ******    1 imaginary frequencies (negative Signs) ******

                     1                      2                      3
                     A                      A                      A
 Frequencies --  -454.8728                60.0963                98.4820
 Red. masses --    12.7493                 4.8483                 4.9441
 Frc consts  --     1.5542                 0.0103                 0.0283
 IR Inten    --    59.9428                 1.3471                 0.1331

                     4                      5                      6
                     A                      A                      A
 Frequencies --   153.0388               192.3275               251.2353
 Red. masses --     7.6545                 2.8677                 1.3676
 Frc consts  --     0.1056                 0.0625                 0.0509
 IR Inten    --     4.6598                 0.3071                 0.5198

                     7                      8                      9
                     A                      A                      A
 Frequencies --   254.9664               377.8238               405.8322
 Red. masses --     3.6712                 7.2356                 7.2793
 Frc consts  --     0.1406                 0.6086                 0.7064
 IR Inten    --     0.6185                 1.0902                 5.8343

                    10                     11                     12
                     A                      A                      A
 Frequencies --   411.9202               439.0958               495.3819
 Red. masses --     3.1077                 5.6900                 4.5184
 Frc consts  --     0.3107                 0.6464                 0.6533
 IR Inten    --     7.4729                 3.3243                 0.0002

                    13                     14                     15
                     A                      A                      A
 Frequencies --   562.1507               578.1156               692.8469
 Red. masses --     5.5346                 8.1853                 2.5223
 Frc consts  --     1.0305                 1.6118                 0.7134
 IR Inten    --    19.2477                16.4616                10.8336

                    16                     17                     18
                     A                      A                      A
 Frequencies --   745.7465               786.9742               905.3711
 Red. masses --     5.8720                 1.6949                 1.4548
 Frc consts  --     1.9241                 0.6185                 0.7026
 IR Inten    --    19.4003                30.5914                 7.8285

                    19                     20                     21
                     A                      A                      A
 Frequencies --   922.5138               930.7430               988.6692
 Red. masses --     1.3549                 6.8420                 3.1353
 Frc consts  --     0.6793                 3.4922                 1.8056
 IR Inten    --     1.8687                10.3408                28.9049

                    22                     23                     24
                     A                      A                      A
 Frequencies --  1053.5559              1140.5378              1154.4800
 Red. masses --     4.7198                 1.2257                 1.2746
 Frc consts  --     3.0866                 0.9394                 1.0009
 IR Inten    --    50.7106                13.1389                 0.9533

                    25                     26                     27
                     A                      A                      A
 Frequencies --  1184.5038              1247.2099              1269.9480
 Red. masses --     1.4617                 2.2202                 1.8928
 Frc consts  --     1.2083                 2.0348                 1.7985
 IR Inten    --    28.8243               207.9506               127.1093

                    28                     29                     30
                     A                      A                      A
 Frequencies --  1368.2885              1389.6784              1438.6565
 Red. masses --     3.4210                 3.8631                 1.4581
 Frc consts  --     3.7736                 4.3956                 1.7780
 IR Inten    --     3.0135                 5.2727                77.8510

                    31                     32                     33
                     A                      A                      A
 Frequencies --  1466.2931              1471.7898              1477.2508
 Red. masses --     1.7984                 1.0461                 1.1316
 Frc consts  --     2.2781                 1.3351                 1.4550
 IR Inten    --    34.8238                 8.1077                64.9584

                    34                     35                     36
                     A                      A                      A
 Frequencies --  1561.9471              1631.4084              2265.6371
 Red. masses --     5.3220                 8.4076                13.9181
 Frc consts  --     7.6499                13.1839                42.0930
 IR Inten    --   230.8126                37.6399               392.4793

                    37                     38                     39
                     A                      A                      A
 Frequencies --  3009.6277              3077.0474              3143.2893
 Red. masses --     1.0346                 1.1062                 1.0889
 Frc consts  --     5.5212                 6.1709                 6.3387
 IR Inten    --    60.9603                33.9338                35.2219

                    40                     41                     42
                     A                      A                      A
 Frequencies --  3149.3114              3175.0083              3227.8096
 Red. masses --     1.0996                 1.0928                 1.0920
 Frc consts  --     6.4257                 6.4908                 6.7030
 IR Inten    --    20.3909                 9.6191                 4.0584

 - Thermochemistry -
 -------------------
 Temperature   298.150 Kelvin.  Pressure   1.00000 Atm.
 Atom     1 has atomic number  6 and mass  12.00000

 Molecular mass:   134.04801 amu.
 Principal axes and moments of inertia in atomic units:
                           1         2         3
     Eigenvalues --   365.236862590.770002944.34545
           X            0.99995   0.00986   0.00000
           Y           -0.00986   0.99995   0.00000
           Z            0.00000   0.00000   1.00000
 This molecule is an asymmetric top.
 Rotational symmetry number  1.
 Rotational temperatures (Kelvin)      0.23714     0.03343     0.02942
 Rotational constants (GHZ):           4.94129     0.69660     0.61295
    1 imaginary frequencies ignored.
 Zero-point vibrational energy     300003.1 (Joules/Mol)
                                   71.70247 (Kcal/Mol)
 Warning -- explicit consideration of  13 degrees of freedom as
           vibrations may cause significant error
 Vibrational temperatures:     86.47   141.69   220.19   276.72   361.47
          (Kelvin)            366.84   543.60   583.90   592.66   631.76
                              712.74   808.81   831.78   996.85  1072.96
                             1132.28  1302.63  1327.29  1339.13  1422.47
                             1515.83  1640.98  1661.04  1704.23  1794.45
                             1827.17  1968.66  1999.43  2069.90  2109.67
                             2117.57  2125.43  2247.29  2347.23  3259.74
                             4330.18  4427.18  4522.49  4531.15  4568.12
                             4644.09

 Zero-point correction=                           0.114265 (Hartree/Particle)
 Thermal correction to Energy=                    0.123257
 Thermal correction to Enthalpy=                  0.124201
 Thermal correction to Gibbs Free Energy=         0.079877
 Sum of electronic and zero-point Energies=           -454.862390
 Sum of electronic and thermal Energies=              -454.853398
 Sum of electronic and thermal Enthalpies=            -454.852454
 Sum of electronic and thermal Free Energies=         -454.896778

                     E (Thermal)             CV                S
                      KCal/Mol        Cal/Mol-Kelvin    Cal/Mol-Kelvin
 Total                   77.345             32.519             93.288
 Electronic               0.000              0.000              0.000
 Translational            0.889              2.981             40.592
 Rotational               0.889              2.981             29.412
 Vibrational             75.567             26.557             23.285
 Vibration     1          0.597              1.973              4.454
 Vibration     2          0.604              1.950              3.484
 Vibration     3          0.619              1.899              2.634
 Vibration     4          0.634              1.851              2.205
 Vibration     5          0.663              1.761              1.722
 Vibration     6          0.665              1.754              1.696
 Vibration     7          0.748              1.517              1.048
 Vibration     8          0.771              1.458              0.941
 Vibration     9          0.776              1.444              0.920
 Vibration    10          0.799              1.385              0.829
 Vibration    11          0.851              1.260              0.670
 Vibration    12          0.918              1.113              0.520
 Vibration    13          0.935              1.079              0.489

 Optimization completed.
    -- Stationary point found.
 Normal termination of Gaussian 09 at Wed Dec 19 06:23:05 2018.
