 Gaussian 09, Revision B.01,
 Gaussian 09:  EM64L-G09RevB.01 12-Aug-2010

 ---------------------------------------------------------
 # rb3lyp/aug-cc-pVDZ opt=(ts,noeigen,calcfc) freq=noraman
 ---------------------------------------------------------

 ----
 C6H4
 ----
 Symbolic Z-matrix:
 Charge =  0 Multiplicity = 1

 SCF Done:  E(RB3LYP) =  -340.437020898     A.U. after   18 cycles
 SCF Done:  E(RB3LYP) =  -340.437031103     A.U. after   12 cycles
 Optimization completed.
    -- Stationary point found.

 1\1\GINC-LC06-1-7\FTS\RB3LYP\Aug-CC-pVDZ\C6H4N2\UBUNTU\19-Dec-2018\0\\
 # rb3lyp/aug-cc-pVDZ opt=(ts,noeigen,calcfc) freq=noraman\\C6H4\\0,1\C
 ,-1.8914676295,0.1004077099,-1.0685798862\C,-0.4759449516,0.0311747703
 ,-0.9448714453\C,-0.0493925686,0.8565731449,0.0227401251\C,-0.68494811
 54,1.737294965,0.9012434334\C,-2.0662295594,1.7610757037,0.7324016012\
 C,-2.6595604664,0.9403729099,-0.2535919876\H,-2.4061723178,-0.51219103
 65,-1.8146956543\N,1.5365944062,0.8104488604,0.195914316\N,2.608726239
 ,0.5452904275,0.0557538734\H,-3.7452577789,0.9688044592,-0.3755950307\

 Normal termination of Gaussian 09 at Wed Dec 19 07:17:24 2018.

 ----------------------------------------------------------------------
 #N Geom=AllCheck Guess=TCheck SCRF=Check GenChk RB3LYP/Aug-CC-pVDZ Fre
 q
 ----------------------------------------------------------------------

 C6H4
 ----
 Redundant internal coordinates taken from checkpoint file:
 C6H4-TS.chk
 Charge =  0 Multiplicity = 1

                         Standard orientation:
 ---------------------------------------------------------------------
 Center     Atomic      Atomic             Coordinates (Angstroms)
 Number     Number       Type             X           Y           Z
 ---------------------------------------------------------------------
      1          6           0        1.392462   -1.303599    0.000000
      2          6           0       -0.029198   -1.251791   -0.000001
      3          6           0       -0.451512    0.021454   -0.000001
      4          6           0        0.192911    1.260845   -0.000001
      5          6           0        1.579866    1.145232    0.000000
      6          6           0        2.169657   -0.139262    0.000001
      7          1           0        1.904811   -2.270235    0.000001
      8          7           0       -2.044149    0.126232   -0.000001
      9          7           0       -3.122459   -0.150657    0.000001
     10          1           0        3.259884   -0.215659    0.000001
     11          1           0        2.202519    2.039623    0.000001
     12          1           0       -0.326075    2.219962   -0.000001
 ---------------------------------------------------------------------

 SCF Done:  E(RB3LYP) =  -340.437031103     A.U. after    1 cycles

 The electronic state is 1-A.
 Alpha  occ. eigenvalues --  -14.51847 -14.49209 -10.26328 -10.22157 -10.20674
 Alpha  occ. eigenvalues --  -10.20325 -10.19754 -10.16112  -1.18071  -0.88262
 Alpha  occ. eigenvalues --   -0.79310  -0.75674  -0.67911  -0.61983  -0.56897
 Alpha  occ. eigenvalues --   -0.52910  -0.52553  -0.51348  -0.48983  -0.45571
 Alpha  occ. eigenvalues --   -0.44005  -0.39692  -0.38393  -0.36306  -0.27650
 Alpha  occ. eigenvalues --   -0.25923  -0.20684
 Alpha virt. eigenvalues --   -0.10069  -0.09557  -0.02384  -0.01499   0.00038
 Alpha virt. eigenvalues --    0.00425   0.01427   0.03195   0.03519   0.04239
 Alpha virt. eigenvalues --    0.04667   0.06587   0.07170   0.07171   0.08182

 Mulliken atomic charges:
              1
     1  C    0.709908
     2  C   -1.387787
     3  C    1.098336
     4  C    0.858306
     5  C    0.936397
     6  C    0.854483
     7  H   -0.646096
     8  N    0.440459
     9  N   -0.702072
    10  H   -0.734579
    11  H   -0.701427
    12  H   -0.725926
 Sum of Mulliken atomic charges =   0.00000

 Dipole moment (field-independent basis, Debye):
    X=             -0.4253    Y=              3.1532    Z=              0.0000  Tot=              3.1818
 Quadrupole moment (field-independent basis, Debye-Ang):
   XX=            -39.7354   YY=            -47.5245   ZZ=            -48.5057
   XY=             -2.3337   XZ=              0.0000   YZ=              0.0000

  Exact polarizability: 134.880  -3.846  95.146   0.000   0.000  51.356
 Approx polarizability: 246.585 -22.259 174.894   0.000   0.000  78.710

 ******    1 imaginary frequencies (negative Signs) ******

                     1                      2                      3
                     A                      A                      A
 Frequencies --  -445.2824               101.6685               182.2091
 Red. masses --    12.6704                 7.4310                 7.6260
 Frc consts  --     1.4802                 0.0453                 0.1492
 IR Inten    --    39.9029                 1.7953                 6.2048

                     4                      5                      6
                     A                      A                      A
 Frequencies --   281.5183               404.6726               431.5576
 Red. masses --     4.9672                 3.7770                 8.3300
 Frc consts  --     0.2319                 0.3644                 0.9141
 IR Inten    --     0.0038                10.9227                 1.0591

                     7                      8                      9
                     A                      A                      A
 Frequencies --   457.3788               569.0456               606.4834
 Red. masses --     4.2565                 7.9020                 8.1343
 Frc consts  --     0.5246                 1.5076                 1.7628
 IR Inten    --     0.6764                15.0047                 3.6171

                    10                     11                     12
                     A                      A                      A
 Frequencies --   675.6893               737.7902               870.9067
 Red. masses --     3.6393                 1.2849                 1.2581
 Frc consts  --     0.9789                 0.4121                 0.5622
 IR Inten    --     0.1214                56.6617                 0.6780

                    13                     14                     15
                     A                      A                      A
 Frequencies --   909.1280               939.5883               954.4409
 Red. masses --     6.2130                 1.3766                 5.5168
 Frc consts  --     3.0255                 0.7160                 2.9610
 IR Inten    --     2.0666                 0.0021                24.0354

                    16                     17                     18
                     A                      A                      A
 Frequencies --  1004.9271              1025.0792              1118.1744
 Red. masses --     1.3839                 2.2016                 1.5220
 Frc consts  --     0.8234                 1.3630                 1.1212
 IR Inten    --     0.0209                 9.2112                 2.0550

                    19                     20                     21
                     A                      A                      A
 Frequencies --  1160.2503              1254.2842              1364.5777
 Red. masses --     1.1367                 1.6973                 2.8459
 Frc consts  --     0.9015                 1.5732                 3.1222
 IR Inten    --     0.0696                 4.6838                29.5465

                    22                     23                     24
                     A                      A                      A
 Frequencies --  1399.9833              1459.3787              1561.0630
 Red. masses --     1.9232                 2.6245                 4.6182
 Frc consts  --     2.2209                 3.2933                 6.6307
 IR Inten    --    17.3110                13.2988                 8.9312

                    25                     26                     27
                     A                      A                      A
 Frequencies --  1615.7824              2279.7383              3132.6153
 Red. masses --     7.5994                13.9210                 1.0867
 Frc consts  --    11.6895                42.6275                 6.2834
 IR Inten    --    57.0953               295.7015                27.2507

                    28                     29                     30
                     A                      A                      A
 Frequencies --  3161.9477              3179.4302              3200.5372
 Red. masses --     1.0916                 1.0912                 1.0967
 Frc consts  --     6.4304                 6.4991                 6.6191
 IR Inten    --    36.0056                 7.8436                11.9755

 - Thermochemistry -
 -------------------
 Temperature   298.150 Kelvin.  Pressure   1.00000 Atm.
 Atom     1 has atomic number  6 and mass  12.00000

 Molecular mass:   104.03745 amu.
 Principal axes and moments of inertia in atomic units:
                           1         2         3
     Eigenvalues --   318.382811166.121641484.50445
           X            0.99999  -0.00477   0.00000
           Y            0.00477   0.99999   0.00000
           Z            0.00000   0.00000   1.00000
 This molecule is an asymmetric top.
 Rotational symmetry number  1.
 Rotational temperatures (Kelvin)      0.27204     0.07428     0.05835
 Rotational constants (GHZ):           5.66846     1.54764     1.21572
    1 imaginary frequencies ignored.
 Zero-point vibrational energy     215566.1 (Joules/Mol)
                                   51.52155 (Kcal/Mol)
 Warning -- explicit consideration of   8 degrees of freedom as
           vibrations may cause significant error
 Vibrational temperatures:    146.28   262.16   405.04   582.23   620.91
          (Kelvin)            658.07   818.73   872.59   972.16  1061.51
                             1253.04  1308.03  1351.86  1373.23  1445.86
                             1474.86  1608.80  1669.34  1804.63  1963.32
                             2014.26  2099.72  2246.02  2324.75  3280.03
                             4507.13  4549.33  4574.49  4604.85

 Zero-point correction=                           0.082105 (Hartree/Particle)
 Thermal correction to Energy=                    0.088457
 Thermal correction to Enthalpy=                  0.089401
 Thermal correction to Gibbs Free Energy=         0.051430
 Sum of electronic and zero-point Energies=           -340.354926
 Sum of electronic and thermal Energies=              -340.348574
 Sum of electronic and thermal Enthalpies=            -340.347630
 Sum of electronic and thermal Free Energies=         -340.385601

                     E (Thermal)             CV                S
                      KCal/Mol        Cal/Mol-Kelvin    Cal/Mol-Kelvin
 Total                   55.508             23.163             79.916
 Electronic               0.000              0.000              0.000
 Translational            0.889              2.981             39.836
 Rotational               0.889              2.981             27.802
 Vibrational             53.730             17.201             12.279
 Vibration     1          0.604              1.948              3.422
 Vibration     2          0.630              1.864              2.306
 Vibration     3          0.681              1.708              1.524
 Vibration     4          0.770              1.460              0.946
 Vibration     5          0.793              1.401              0.854
 Vibration     6          0.816              1.345              0.774
 Vibration     7          0.925              1.098              0.506
 Vibration     8          0.965              1.018              0.439

 Optimization completed.
    -- Stationary point found.
 Normal termination of Gaussian 09 at Wed Dec 19 07:20:51 2018.
