 Gaussian 16, Revision A.03,
 Gaussian 16:  ES64L-G16RevA.03 25-Dec-2016

 ----------------------------------------------------------------------
 #p opt=(maxcycles=777) freq ub3lyp/aug-cc-pVDZ pop=(Bonding,AllOrbital
 s,mk,no,nboread)
 ----------------------------------------------------------------------

 ---------------------------
 s-C6H4N2_UB3LYP-aug-cc-pVDZ
 ---------------------------
 Symbolic Z-matrix:
 Charge =  0 Multiplicity = 1

 SCF Done:  E(UB3LYP) =  -340.440793881     A.U. after   19 cycles
 SCF Done:  E(UB3LYP) =  -340.440796108     A.U. after   11 cycles
 SCF Done:  E(UB3LYP) =  -340.440796481     A.U. after   11 cycles
 Optimization completed.
    -- Stationary point found.
 Normal termination of Gaussian 16 at Sat Nov  5 22:57:53 2016.

 ----------------------------------------------------------------------
 #P Geom=AllCheck Guess=TCheck SCRF=Check GenChk UB3LYP/Aug-CC-pVDZ Fre
 q
 ----------------------------------------------------------------------

 Structure from the checkpoint file:  "s-C6H4N2_UB3LYP-aug-cc-pVDZ-Opt.chk"
 ---------------------------
 s-C6H4N2_UB3LYP-aug-cc-pVDZ
 ---------------------------
 Charge =  0 Multiplicity = 1

                         Standard orientation:
 ---------------------------------------------------------------------
 Center     Atomic      Atomic             Coordinates (Angstroms)
 Number     Number       Type             X           Y           Z
 ---------------------------------------------------------------------
      1          6           0        0.529617   -0.021920    0.000025
      2          7           0        1.925130   -0.002923    0.000080
      3          7           0        3.041520   -0.055718   -0.000067
      4          6           0        0.008267   -1.329482    0.000052
      5          6           0       -1.417840   -1.266765   -0.000082
      6          6           0       -2.142885   -0.076380    0.000000
      7          6           0       -1.501365    1.189355    0.000029
      8          6           0       -0.123277    1.242996   -0.000015
      9          1           0       -1.981980   -2.204695   -0.000038
     10          1           0       -3.235722   -0.104606    0.000071
     11          1           0       -2.088978    2.106847   -0.000031
     12          1           0        0.425025    2.186114   -0.000153
 ---------------------------------------------------------------------

 SCF Done:  E(UB3LYP) =  -340.440796481     A.U. after    1 cycles

 Mulliken charges and spin densities:
               1          2
     1  C    1.314423   0.000000
     2  N    0.466213  -0.000000
     3  N   -0.833580   0.000000
     4  C   -1.466051  -0.000000
     5  C    0.770586   0.000000
     6  C    0.836953  -0.000000
     7  C    0.892838  -0.000000
     8  C    0.864437   0.000000
     9  H   -0.666826  -0.000000
    10  H   -0.728680   0.000000
    11  H   -0.693815   0.000000
    12  H   -0.756498  -0.000000
 Sum of Mulliken charges =  -0.00000  -0.00000

 Dipole moment (field-independent basis, Debye):
    X=              0.0618    Y=              3.7865    Z=             -0.0002  Tot=              3.7870
 Quadrupole moment (field-independent basis, Debye-Ang):
   XX=            -39.8206   YY=            -49.3695   ZZ=            -48.4039
   XY=              2.3456   XZ=             -0.0001   YZ=              0.0001

  Exact polarizability: 138.068  -0.004  93.324   0.000   0.001  52.163
 Approx polarizability: 263.486   6.195 157.112  -0.000   0.003  80.347

 ESP charges:
               1
     1  C    0.940421
     2  N    0.146295
     3  N   -0.058323
     4  C   -1.052405
     5  C    0.644324
     6  C   -0.637629
     7  C    0.429619
     8  C   -0.865432
     9  H   -0.038539
    10  H    0.190818
    11  H    0.029134
    12  H    0.271716
 Sum of ESP charges =   0.00000

 Summary of Natural Population Analysis:

                                       Natural Population
                Natural  -----------------------------------------------
    Atom  No    Charge         Core      Valence    Rydberg      Total
 -----------------------------------------------------------------------
      C    1   -0.03908      0.99938     2.02062    0.01909     3.03908
      N    2    0.07304      0.99964     2.40756    0.01975     3.42696
      N    3    0.07793      0.99981     2.40505    0.01720     3.42207
      C    4   -0.11250      0.99949     2.09157    0.02144     3.11250
      C    5   -0.13857      0.99951     2.12632    0.01274     3.13857
      C    6   -0.08887      0.99949     2.08141    0.00796     3.08887
      C    7   -0.12498      0.99949     2.11677    0.00872     3.12498
      C    8   -0.10841      0.99942     2.10021    0.00877     3.10841
      H    9    0.11066      0.00000     0.38655    0.00279     0.38934
      H   10    0.11376      0.00000     0.38376    0.00248     0.38624
      H   11    0.11886      0.00000     0.37907    0.00207     0.38114
      H   12    0.11816      0.00000     0.37917    0.00267     0.38184
 =======================================================================
   * Total *   -0.00000      7.99623    18.87807    0.12570    27.00000

                      1                      2                      3
                      A                      A                      A
 Frequencies --    129.7538               172.9116               318.4112
 Red. masses --      5.7020                 7.6331                 3.1220
 Frc consts  --      0.0566                 0.1345                 0.1865
 IR Inten    --      1.3989                 1.9987                 7.0113

                      4                      5                      6
                      A                      A                      A
 Frequencies --    395.9046               448.0330               530.2077
 Red. masses --      4.6602                 9.9422                 9.1698
 Frc consts  --      0.4304                 1.1759                 1.5188
 IR Inten    --      8.1639                22.1456                13.0386

                      7                      8                      9
                      A                      A                      A
 Frequencies --    552.7769               616.6494               670.4665
 Red. masses --      6.0182                 7.6447                 2.9982
 Frc consts  --      1.0835                 1.7127                 0.7941
 IR Inten    --      4.2860                 2.3612                 1.3599

                     10                     11                     12
                      A                      A                      A
 Frequencies --    739.1523               752.3880               872.6797
 Red. masses --      1.4409                 6.9180                 1.2693
 Frc consts  --      0.4638                 2.3074                 0.5695
 IR Inten    --     49.1940                 6.2631                 0.0366

                     13                     14                     15
                      A                      A                      A
 Frequencies --    903.0259               952.6847              1005.5916
 Red. masses --      5.4133                 1.3654                 4.8163
 Frc consts  --      2.6008                 0.7301                 2.8695
 IR Inten    --     76.9528                 0.0105                20.1276

                     16                     17                     18
                      A                      A                      A
 Frequencies --   1015.6641              1027.9147              1124.9275
 Red. masses --      1.4092                 3.2549                 1.7335
 Frc consts  --      0.8565                 2.0263                 1.2925
 IR Inten    --      0.1908                11.1603                 0.6195

                     19                     20                     21
                      A                      A                      A
 Frequencies --   1170.6049              1240.2130              1325.4728
 Red. masses --      1.1110                 1.5437                 3.6170
 Frc consts  --      0.8970                 1.3990                 3.7441
 IR Inten    --      0.0158                 7.8264                39.1947

                     22                     23                     24
                      A                      A                      A
 Frequencies --   1403.8823              1420.9731              1541.5575
 Red. masses --      2.3597                 1.9215                 4.3374
 Frc consts  --      2.7401                 2.2859                 6.0730
 IR Inten    --     14.0906                 3.7855                12.6694

                     25                     26                     27
                      A                      A                      A
 Frequencies --   1595.9033              2288.0838              3127.3010
 Red. masses --      4.7945                13.9529                 1.0866
 Frc consts  --      7.1946                43.0387                 6.2612
 IR Inten    --     37.0559               476.5673                19.5562

                     28                     29                     30
                      A                      A                      A
 Frequencies --   3156.4648              3173.0648              3200.5661
 Red. masses --      1.0919                 1.0906                 1.0966
 Frc consts  --      6.4095                 6.4697                 6.6186
 IR Inten    --     35.0563                 7.2940                11.0780

 - Thermochemistry -
 -------------------
 Temperature   298.150 Kelvin.  Pressure   1.00000 Atm.
 Atom     1 has atomic number  6 and mass  12.00000

 Molecular mass:   104.03745 amu.
 Principal axes and moments of inertia in atomic units:
                           1         2         3
     Eigenvalues --   322.318101106.703971429.02206
           X            0.99999   0.00500  -0.00000
           Y           -0.00500   0.99999  -0.00000
           Z            0.00000   0.00000   1.00000
 This molecule is an asymmetric top.
 Rotational symmetry number  1.
 Rotational temperatures (Kelvin)      0.26872     0.07826     0.06061
 Rotational constants (GHZ):           5.59925     1.63074     1.26292
 Zero-point vibrational energy     220550.9 (Joules/Mol)
                                   52.71293 (Kcal/Mol)
 Warning -- explicit consideration of   8 degrees of freedom as
           vibrations may cause significant error
 Vibrational temperatures:    186.69   248.78   458.12   569.62   644.62
          (Kelvin)            762.85   795.32   887.22   964.65  1063.48
                             1082.52  1255.59  1299.25  1370.70  1446.82
                             1461.31  1478.94  1618.52  1684.24  1784.39
                             1907.06  2019.87  2044.46  2217.96  2296.15
                             3292.04  4499.49  4541.45  4565.33  4604.90

 Zero-point correction=                           0.084003 (Hartree/Particle)
 Thermal correction to Energy=                    0.090303
 Thermal correction to Enthalpy=                  0.091247
 Thermal correction to Gibbs Free Energy=         0.053570
 Sum of electronic and zero-point Energies=           -340.356793
 Sum of electronic and thermal Energies=              -340.350494
 Sum of electronic and thermal Enthalpies=            -340.349550
 Sum of electronic and thermal Free Energies=         -340.387227

                     E (Thermal)             CV                S
                      KCal/Mol        Cal/Mol-Kelvin    Cal/Mol-Kelvin
 Total                   56.666             23.603             79.298
 Electronic               0.000              0.000              0.000
 Translational            0.889              2.981             39.836
 Rotational               0.889              2.981             27.724
 Vibrational             54.888             17.642             11.738
 Vibration     1          0.612              1.924              2.950
 Vibration     2          0.626              1.876              2.404
 Vibration     3          0.705              1.638              1.318
 Vibration     4          0.763              1.479              0.978
 Vibration     5          0.807              1.365              0.802
 Vibration     6          0.885              1.183              0.587
 Vibration     7          0.908              1.134              0.538
 Vibration     8          0.976              0.997              0.422

                           ! Non-Optimized Parameters !
 Normal termination of Gaussian 16 at Sat Nov  5 23:06:48 2016.
