                         Program Version 4.1.0  - RELEASE  -
|  1> ! B3LYP/G aug-cc-pVDZ TightSCF Grid7 NEB-TS
|  2> %scf MaxIter 1000 end
|  3> %geom MaxIter 1000 TolE 1e-8 TolRMSG 5e-7 TolMaxG 1e-6 Convergence tight end
|  4> %neb
|  5>   Nimages 12
|  6>   neb_end_xyzfile "2-HOOC-C6H3-N2-final.xyz"
|  7> end
|  8> * xyzfile 0 1 2-HOOC-C6H3-N2-source.xyz
|  9> %pal nprocs 42 end
| 10>
| 11>                          ****END OF INPUT****
 Total Charge           Charge          ....    0
 Multiplicity           Mult            ....    1
 Number of Electrons    NEL             ....   76

MULLIKEN ATOMIC CHARGES
-----------------------
   0 C :    0.572196
   1 C :   -1.478429
   2 C :    1.188639
   3 C :    1.928983
   4 C :    0.457222
   5 C :    0.573825
   6 H :   -0.699803
   7 H :   -0.994758
   8 N :    0.481347
   9 N :   -0.903084
  10 H :   -0.759222
  11 C :    0.486047
  12 O :   -0.531559
  13 O :   -0.589857
  14 H :    0.268453
Sum of atomic charges:    0.0000000

LOEWDIN ATOMIC CHARGES
----------------------
   0 C :   -0.063340
   1 C :    0.052495
   2 C :   -0.259924
   3 C :   -0.115309
   4 C :    0.062336
   5 C :    0.024464
   6 H :   -0.012274
   7 H :    0.014350
   8 N :    0.002413
   9 N :    0.334893
  10 H :    0.008688
  11 C :   -0.385646
  12 O :    0.116249
  13 O :    0.244879
  14 H :   -0.024276

  Mayer bond orders larger than 0.1
B(  0-C ,  1-C ) :   1.2450 B(  0-C ,  2-C ) :   0.2159 B(  0-C ,  4-C ) :  -0.2953
B(  0-C ,  5-C ) :   1.3343 B(  0-C ,  6-H ) :   0.2536 B(  0-C , 10-H ) :   0.2617
B(  1-C ,  2-C ) :   0.6018 B(  1-C ,  3-C ) :  -0.6470 B(  1-C ,  4-C ) :   0.2466
B(  1-C ,  6-H ) :  -0.2388 B(  1-C ,  8-N ) :   0.1139 B(  1-C ,  9-N ) :   0.1380
B(  1-C , 11-C ) :   0.2245 B(  2-C ,  3-C ) :   0.1694 B(  2-C ,  4-C ) :  -0.8167
B(  2-C ,  5-C ) :  -0.2736 B(  2-C ,  8-N ) :   1.0500 B(  2-C ,  9-N ) :  -0.7042
B(  3-C ,  4-C ) :  -0.8568 B(  3-C ,  5-C ) :  -0.7226 B(  3-C ,  7-H ) :   0.2620
B(  3-C ,  8-N ) :  -0.4179 B(  3-C ,  9-N ) :   0.1576 B(  3-C , 10-H ) :   0.1039
B(  3-C , 11-C ) :  -0.1056 B(  3-C , 12-O ) :  -0.1235 B(  3-C , 13-O ) :   0.2658
B(  4-C ,  5-C ) :   1.4723 B(  4-C ,  7-H ) :  -0.6824 B(  4-C , 10-H ) :   0.2256
B(  4-C , 11-C ) :  -0.7484 B(  5-C ,  6-H ) :   0.1715 B(  5-C ,  7-H ) :   0.4522
B(  5-C , 10-H ) :  -0.2572 B(  5-C , 11-C ) :   0.2664 B(  7-H , 11-C ) :   0.1080
B(  8-N ,  9-N ) :   1.2085 B( 11-C , 12-O ) :   1.6422 B( 11-C , 13-O ) :   0.2455
B( 12-O , 13-O ) :   0.1433 B( 13-O , 14-H ) :   0.9111

FINAL SINGLE POINT ENERGY      -529.046932736658
FINAL SINGLE POINT ENERGY      -529.043543056881
FINAL SINGLE POINT ENERGY      -529.043614883754
FINAL SINGLE POINT ENERGY      -529.043553975642
FINAL SINGLE POINT ENERGY      -529.043557719198
FINAL SINGLE POINT ENERGY      -529.043556214484
FINAL SINGLE POINT ENERGY      -529.043527105711
FINAL SINGLE POINT ENERGY      -529.043563431774
FINAL SINGLE POINT ENERGY      -529.043564772125
FINAL SINGLE POINT ENERGY      -529.043565761243
FINAL SINGLE POINT ENERGY      -529.043566502019
FINAL SINGLE POINT ENERGY      -529.043567066918
FINAL SINGLE POINT ENERGY      -529.043567502197
FINAL SINGLE POINT ENERGY      -529.043567814291
FINAL SINGLE POINT ENERGY      -529.043568067387
FINAL SINGLE POINT ENERGY      -529.043568253739
FINAL SINGLE POINT ENERGY      -529.043568409831

CARTESIAN COORDINATES (ANGSTROEM)
---------------------------------
  C     -0.971292   -2.162616   -0.303971
  C      0.433873   -1.944910   -0.356522
  C      0.738640   -0.659448   -0.158499
  C     -0.036605    0.490669    0.085355
  C     -1.406254    0.204028    0.123893
  C     -1.864324   -1.111783   -0.069586
  H     -1.375110   -3.168891   -0.448447
  H     -2.099164    1.023521    0.306549
  N      2.335087   -0.442740   -0.223685
  N      3.415551   -0.675665   -0.331877
  H     -2.938751   -1.304364   -0.034004
  C      0.405832    1.892084    0.294370
  O     -0.334608    2.829201    0.499959
  O      1.758842    2.044044    0.234187
  H      1.938283    2.986870    0.382277

FINAL SINGLE POINT ENERGY      -529.043568525804
                    ***********************HURRAY********************
 Multiplicity           Mult            ....    1
 Number of Electrons    NEL             ....   76
 Basis Dimension        Dim             ....  289

ORBITAL ENERGIES
----------------

  NO   OCC          E(Eh)            E(eV)
   0   2.0000     -19.223425      -523.0960
   1   2.0000     -19.162603      -521.4409
   2   2.0000     -14.520083      -395.1115
   3   2.0000     -14.493139      -394.3784
   4   2.0000     -10.349724      -281.6303
   5   2.0000     -10.277274      -279.6588
   6   2.0000     -10.242160      -278.7034
   7   2.0000     -10.219753      -278.0936
   8   2.0000     -10.213764      -277.9306
   9   2.0000     -10.212839      -277.9055
  10   2.0000     -10.169932      -276.7379
  11   2.0000      -1.183301       -32.1993
  12   2.0000      -1.137626       -30.9564
  13   2.0000      -1.047244       -28.4970
  14   2.0000      -0.896653       -24.3992
  15   2.0000      -0.802043       -21.8247
  16   2.0000      -0.785643       -21.3784
  17   2.0000      -0.699211       -19.0265
  18   2.0000      -0.677765       -18.4429
  19   2.0000      -0.609878       -16.5956
  20   2.0000      -0.591575       -16.0976
  21   2.0000      -0.545542       -14.8449
  22   2.0000      -0.528052       -14.3690
  23   2.0000      -0.527014       -14.3408
  24   2.0000      -0.513805       -13.9814
  25   2.0000      -0.500278       -13.6133
  26   2.0000      -0.478784       -13.0284
  27   2.0000      -0.477820       -13.0021
  28   2.0000      -0.456262       -12.4155
  29   2.0000      -0.431648       -11.7457
  30   2.0000      -0.405538       -11.0353
  31   2.0000      -0.393281       -10.7017
  32   2.0000      -0.378662       -10.3039
  33   2.0000      -0.352688        -9.5971
  34   2.0000      -0.312730        -8.5098
  35   2.0000      -0.288765        -7.8577
  36   2.0000      -0.272330        -7.4105
  37   2.0000      -0.216399        -5.8885
  38   0.0000      -0.106024        -2.8850
  39   0.0000      -0.098806        -2.6886
  40   0.0000      -0.066901        -1.8205
  41   0.0000      -0.021520        -0.5856
  42   0.0000      -0.008245        -0.2244

-------
TIMINGS
-------

FINAL SINGLE POINT ENERGY      -529.043568616261
                    ***********************HURRAY************************

DIPOLE MOMENT
-------------
                                X             Y             Z
Electronic contribution:      6.23706       1.46187      -0.14963
Nuclear contribution   :     -5.84568      -0.93937       0.21299
                        -----------------------------------------
Total Dipole Moment    :      0.39138       0.52250       0.06336
                        -----------------------------------------
Magnitude (a.u.)       :      0.65590
Magnitude (Debye)      :      1.66716

Rotational constants in cm-1:     0.048485     0.039890     0.021885
Rotational constants in MHz :  1453.542687  1195.862515   656.085836

                             ****ORCA TERMINATED NORMALLY****
TOTAL RUN TIME: 1 days 15 hours 3 minutes 55 seconds 294 msec
