                         Program Version 4.1.0  - RELEASE  -
|  1> ! B3LYP/G aug-cc-pVDZ TightSCF Grid7 NEB-TS
|  2> %scf MaxIter 1000 end
|  3> %geom MaxIter 1000 TolE 1e-8 TolRMSG 5e-7 TolMaxG 1e-6 Convergence tight end
|  4> %neb
|  5>   Nimages 12
|  6>   neb_end_xyzfile "2-HOOC-4-Br-C6H2-N2-final.xyz"
|  7> end
|  8> * xyzfile 0 1 2-HOOC-4-Br-C6H2-N2-source.xyz
|  9> %pal nprocs 42 end
| 10>
| 11>                          ****END OF INPUT****
 Total Charge           Charge          ....    0
 Multiplicity           Mult            ....    1
 Number of Electrons    NEL             ....  110

MULLIKEN ATOMIC CHARGES
-----------------------
   0 C :    0.504523
   1 C :   -1.660046
   2 C :    1.224136
   3 C :    2.053395
   4 C :    0.509576
   5 C :   -0.159719
   6 H :   -0.727072
   7 H :   -0.985603
   8 N :    0.475785
   9 N :   -0.921480
  10 Br:    0.097955
  11 C :    0.443763
  12 O :   -0.531381
  13 O :   -0.598003
  14 H :    0.274170
Sum of atomic charges:    0.0000000

LOEWDIN ATOMIC CHARGES
----------------------
   0 C :   -0.116845
   1 C :    0.059342
   2 C :   -0.258287
   3 C :   -0.112885
   4 C :    0.009259
   5 C :   -0.547658
   6 H :   -0.020195
   7 H :    0.004971
   8 N :    0.000004
   9 N :    0.339660
  10 Br:    0.674681
  11 C :   -0.382296
  12 O :    0.123169
  13 O :    0.248369
  14 H :   -0.021289

  Mayer bond orders larger than 0.1
B(  0-C ,  1-C ) :   1.5047 B(  0-C ,  2-C ) :   0.3385 B(  0-C ,  4-C ) :  -0.2447
B(  0-C ,  5-C ) :   0.2516 B(  0-C ,  6-H ) :   0.1290 B(  1-C ,  2-C ) :   0.4410
B(  1-C ,  3-C ) :  -0.6904 B(  1-C ,  4-C ) :   0.3100 B(  1-C ,  5-C ) :  -0.2937
B(  1-C ,  6-H ) :  -0.1444 B(  1-C ,  9-N ) :   0.1445 B(  1-C , 11-C ) :   0.2267
B(  2-C ,  4-C ) :  -0.7683 B(  2-C ,  5-C ) :  -0.1630 B(  2-C ,  8-N ) :   1.0943
B(  2-C ,  9-N ) :  -0.7300 B(  3-C ,  4-C ) :  -0.7229 B(  3-C ,  5-C ) :  -0.5523
B(  3-C ,  7-H ) :   0.2917 B(  3-C ,  8-N ) :  -0.4022 B(  3-C ,  9-N ) :   0.1590
B(  3-C , 11-C ) :  -0.1682 B(  3-C , 12-O ) :  -0.1627 B(  3-C , 13-O ) :   0.1644
B(  4-C ,  5-C ) :   0.8812 B(  4-C ,  6-H ) :   0.2755 B(  4-C ,  7-H ) :  -0.6363
B(  4-C , 11-C ) :  -0.6928 B(  5-C ,  7-H ) :   0.3077 B(  5-C , 10-Br) :   1.0084
B(  5-C , 11-C ) :   0.2330 B(  8-N ,  9-N ) :   1.1948 B( 11-C , 12-O ) :   1.6714
B( 11-C , 13-O ) :   0.2804 B( 12-O , 13-O ) :   0.1460 B( 13-O , 14-H ) :   0.9055

FINAL SINGLE POINT ENERGY     -3102.604147487422
FINAL SINGLE POINT ENERGY     -3102.599489178906
FINAL SINGLE POINT ENERGY     -3102.599515292713
FINAL SINGLE POINT ENERGY     -3102.599508259428
FINAL SINGLE POINT ENERGY     -3102.599511524711
FINAL SINGLE POINT ENERGY     -3102.599509649871
FINAL SINGLE POINT ENERGY     -3102.599516938751
FINAL SINGLE POINT ENERGY     -3102.599519077760
FINAL SINGLE POINT ENERGY     -3102.599520620053
FINAL SINGLE POINT ENERGY     -3102.599521738656
FINAL SINGLE POINT ENERGY     -3102.599522586289
FINAL SINGLE POINT ENERGY     -3102.599523211377
FINAL SINGLE POINT ENERGY     -3102.599523711628
FINAL SINGLE POINT ENERGY     -3102.599524094094
FINAL SINGLE POINT ENERGY     -3102.599524392102
FINAL SINGLE POINT ENERGY     -3102.599524636822

CARTESIAN COORDINATES (ANGSTROEM)
---------------------------------
  C     -0.918056   -2.169366   -0.310948
  C      0.477900   -1.930719   -0.347315
  C      0.787872   -0.651020   -0.152333
  C      0.018130    0.499858    0.085180
  C     -1.351969    0.217284    0.115771
  C     -1.793253   -1.102967   -0.080847
  H     -1.328560   -3.170497   -0.457094
  H     -2.052842    1.029448    0.291341
  N      2.405837   -0.428488   -0.204534
  N      3.482792   -0.669420   -0.325375
  Br    -3.688014   -1.430040   -0.025488
  C      0.456456    1.906249    0.294105
  O     -0.291140    2.836610    0.496667
  O      1.807350    2.059987    0.236714
  H      1.987496    3.003082    0.384157

FINAL SINGLE POINT ENERGY     -3102.599524837459
                    ***********************HURRAY********************
 Multiplicity           Mult            ....    1
 Number of Electrons    NEL             ....  110
 Basis Dimension        Dim             ....  316

ORBITAL ENERGIES
----------------

  NO   OCC          E(Eh)            E(eV)
   0   2.0000    -482.892336    -13140.1685
   1   2.0000     -62.543353     -1701.8911
   2   2.0000     -56.360414     -1533.6448
   3   2.0000     -56.356997     -1533.5518
   4   2.0000     -56.356841     -1533.5476
   5   2.0000     -19.231311      -523.3106
   6   2.0000     -19.170884      -521.6663
   7   2.0000     -14.525294      -395.2534
   8   2.0000     -14.500168      -394.5696
   9   2.0000     -10.358421      -281.8670
  10   2.0000     -10.286559      -279.9115
  11   2.0000     -10.268354      -279.4161
  12   2.0000     -10.255209      -279.0584
  13   2.0000     -10.233279      -278.4617
  14   2.0000     -10.227299      -278.2990
  15   2.0000     -10.182916      -277.0912
  16   2.0000      -8.723956      -237.3909
  17   2.0000      -6.553831      -178.3388
  18   2.0000      -6.541486      -178.0029
  19   2.0000      -6.541007      -177.9898
  20   2.0000      -2.664213       -72.4969
  21   2.0000      -2.660735       -72.4023
  22   2.0000      -2.660393       -72.3930
  23   2.0000      -2.650545       -72.1250
  24   2.0000      -2.650537       -72.1248
  25   2.0000      -1.189638       -32.3717
  26   2.0000      -1.145929       -31.1823
  27   2.0000      -1.056005       -28.7354
  28   2.0000      -0.912960       -24.8429
  29   2.0000      -0.840481       -22.8707
  30   2.0000      -0.798193       -21.7199
  31   2.0000      -0.772565       -21.0226
  32   2.0000      -0.708197       -19.2710
  33   2.0000      -0.672620       -18.3029
  34   2.0000      -0.624137       -16.9836
  35   2.0000      -0.600706       -16.3460
  36   2.0000      -0.547922       -14.9097
  37   2.0000      -0.533813       -14.5258
  38   2.0000      -0.532355       -14.4861
  39   2.0000      -0.521578       -14.1929
  40   2.0000      -0.507644       -13.8137
  41   2.0000      -0.487326       -13.2608
  42   2.0000      -0.482994       -13.1429
  43   2.0000      -0.468822       -12.7573
  44   2.0000      -0.440187       -11.9781
  45   2.0000      -0.417070       -11.3490
  46   2.0000      -0.412302       -11.2193
  47   2.0000      -0.388842       -10.5809
  48   2.0000      -0.361313        -9.8318
  49   2.0000      -0.339108        -9.2276
  50   2.0000      -0.321057        -8.7364
  51   2.0000      -0.302822        -8.2402
  52   2.0000      -0.284973        -7.7545
  53   2.0000      -0.271173        -7.3790
  54   2.0000      -0.228876        -6.2280
  55   0.0000      -0.112960        -3.0738
  56   0.0000      -0.107004        -2.9117
  57   0.0000      -0.076748        -2.0884
  58   0.0000      -0.028460        -0.7744
  59   0.0000      -0.020955        -0.5702

-------
TIMINGS
-------

FINAL SINGLE POINT ENERGY     -3102.599525002054
                    ***********************HURRAY************************

DIPOLE MOMENT
-------------
                                X             Y             Z
Electronic contribution:    -25.70185     -10.94747      -0.34169
Nuclear contribution   :     26.83728      11.62589       0.38556
                        -----------------------------------------
Total Dipole Moment    :      1.13543       0.67842       0.04387
                        -----------------------------------------
Magnitude (a.u.)       :      1.32340
Magnitude (Debye)      :      3.36381

Rotational constants in cm-1:     0.044955     0.011741     0.009309
Rotational constants in MHz :  1347.709369   351.972012   279.086137

                             ****ORCA TERMINATED NORMALLY****
TOTAL RUN TIME: 4 days 8 hours 14 minutes 46 seconds 849 msec
