                         Program Version 4.1.0  - RELEASE  -
|  1> ! B3LYP/G aug-cc-pVDZ TightSCF Grid7 NEB-TS
|  2> %scf MaxIter 1000 end
|  3> %geom MaxIter 1000 TolE 1e-8 TolRMSG 5e-7 TolMaxG 1e-6 Convergence tight end
|  4> %neb
|  5>   Nimages 12
|  6>   neb_end_xyzfile "2-NO2-C6H3-N2-final.xyz"
|  7> end
|  8> * xyzfile 0 1 2-NO2-C6H3-N2-source.xyz
|  9> %pal nprocs 42 end
| 10>
| 11>                          ****END OF INPUT****
 Total Charge           Charge          ....    0
 Multiplicity           Mult            ....    1
 Number of Electrons    NEL             ....   76

MULLIKEN ATOMIC CHARGES
-----------------------
   0 C :    0.693264
   1 C :   -1.453767
   2 C :    1.477785
   3 C :    0.870685
   4 C :    1.042705
   5 C :    0.565887
   6 H :   -0.681794
   7 N :    0.482588
   8 N :   -0.832091
   9 H :   -0.718694
  10 H :   -0.779467
  11 N :    0.708003
  12 O :   -0.699095
  13 O :   -0.676009
Sum of atomic charges:   -0.0000000

LOEWDIN ATOMIC CHARGES
----------------------
   0 C :   -0.054558
   1 C :    0.062137
   2 C :   -0.260314
   3 C :   -0.112080
   4 C :    0.068866
   5 C :    0.028273
   6 H :   -0.009405
   7 N :    0.007148
   8 N :    0.346655
   9 H :    0.011069
  10 H :    0.009557
  11 N :   -0.387636
  12 O :    0.132413
  13 O :    0.157875

  Mayer bond orders larger than 0.1
B(  0-C ,  1-C ) :   1.2438 B(  0-C ,  2-C ) :   0.2986 B(  0-C ,  4-C ) :  -0.1320
B(  0-C ,  5-C ) :   1.3192 B(  0-C ,  6-H ) :   0.2458 B(  0-C ,  9-H ) :   0.2294
B(  1-C ,  2-C ) :   0.6481 B(  1-C ,  3-C ) :  -0.4110 B(  1-C ,  5-C ) :   0.1202
B(  1-C ,  6-H ) :  -0.2285 B(  1-C ,  7-N ) :   0.1087 B(  1-C ,  8-N ) :   0.1131
B(  2-C ,  3-C ) :   0.3741 B(  2-C ,  4-C ) :  -0.1966 B(  2-C ,  7-N ) :   0.9929
B(  2-C ,  8-N ) :  -0.5982 B(  2-C , 10-H ) :  -0.1209 B(  3-C ,  4-C ) :   0.7162
B(  3-C ,  5-C ) :  -0.2661 B(  3-C ,  7-N ) :  -0.3841 B(  3-C ,  8-N ) :   0.1685
B(  3-C , 10-H ) :   0.5223 B(  3-C , 11-N ) :   0.5973 B(  3-C , 12-O ) :   0.1732
B(  3-C , 13-O ) :   0.1034 B(  4-C ,  5-C ) :   1.3843 B(  4-C ,  6-H ) :   0.1026
B(  4-C ,  9-H ) :   0.2205 B(  4-C , 10-H ) :  -0.4148 B(  5-C ,  6-H ) :   0.1814
B(  5-C ,  9-H ) :  -0.1808 B(  5-C , 10-H ) :   0.3248 B(  7-N ,  8-N ) :   1.2455
B( 10-H , 11-N ) :  -0.1163 B( 11-N , 12-O ) :   0.8756 B( 11-N , 13-O ) :   0.9331
B( 12-O , 13-O ) :   0.2914

FINAL SINGLE POINT ENERGY      -544.974956992291
FINAL SINGLE POINT ENERGY      -544.971416908864
FINAL SINGLE POINT ENERGY      -544.971429369614
FINAL SINGLE POINT ENERGY      -544.971430930082
FINAL SINGLE POINT ENERGY      -544.971431021397
FINAL SINGLE POINT ENERGY      -544.971431998190
FINAL SINGLE POINT ENERGY      -544.971432637922
FINAL SINGLE POINT ENERGY      -544.971433044122
FINAL SINGLE POINT ENERGY      -544.971433292897

CARTESIAN COORDINATES (ANGSTROEM)
---------------------------------
  C     -1.051462   -1.154245   -1.440365
  C      0.369534   -1.166810   -1.367596
  C      0.834316   -0.381669   -0.403157
  C      0.173078    0.432935    0.525294
  C     -1.215976    0.419954    0.423144
  C     -1.819995   -0.378613   -0.565347
  H     -1.567779   -1.758472   -2.191292
  N      2.463109   -0.385508   -0.305591
  N      3.504811   -0.665791   -0.565213
  H     -2.909155   -0.383504   -0.639763
  H     -1.801457    1.026893    1.109603
  N      0.827939    1.253035    1.543039
  O      2.062864    1.220555    1.581628
  O      0.130173    1.921241    2.295615

FINAL SINGLE POINT ENERGY      -544.971433460160
                    ***********************HURRAY********************
 Multiplicity           Mult            ....    1
 Number of Electrons    NEL             ....   76
 Basis Dimension        Dim             ....  280

ORBITAL ENERGIES
----------------

  NO   OCC          E(Eh)            E(eV)
   0   2.0000     -19.210635      -522.7479
   1   2.0000     -19.210154      -522.7349
   2   2.0000     -14.599238      -397.2655
   3   2.0000     -14.525936      -395.2708
   4   2.0000     -14.499715      -394.5573
   5   2.0000     -10.290773      -280.0262
   6   2.0000     -10.286038      -279.8973
   7   2.0000     -10.238876      -278.6140
   8   2.0000     -10.230004      -278.3726
   9   2.0000     -10.228484      -278.3312
  10   2.0000     -10.185081      -277.1501
  11   2.0000      -1.260055       -34.2878
  12   2.0000      -1.189349       -32.3638
  13   2.0000      -1.086966       -29.5779
  14   2.0000      -0.920040       -25.0356
  15   2.0000      -0.826619       -22.4935
  16   2.0000      -0.812077       -22.0978
  17   2.0000      -0.731998       -19.9187
  18   2.0000      -0.690927       -18.8011
  19   2.0000      -0.629420       -17.1274
  20   2.0000      -0.607972       -16.5438
  21   2.0000      -0.571576       -15.5534
  22   2.0000      -0.565287       -15.3822
  23   2.0000      -0.542805       -14.7705
  24   2.0000      -0.534344       -14.5402
  25   2.0000      -0.531713       -14.4686
  26   2.0000      -0.519823       -14.1451
  27   2.0000      -0.490258       -13.3406
  28   2.0000      -0.477030       -12.9806
  29   2.0000      -0.425824       -11.5873
  30   2.0000      -0.410982       -11.1834
  31   2.0000      -0.399294       -10.8653
  32   2.0000      -0.345757        -9.4085
  33   2.0000      -0.345138        -9.3917
  34   2.0000      -0.326494        -8.8843
  35   2.0000      -0.303543        -8.2598
  36   2.0000      -0.290202        -7.8968
  37   2.0000      -0.231351        -6.2954
  38   0.0000      -0.131267        -3.5720
  39   0.0000      -0.106207        -2.8900
  40   0.0000      -0.093363        -2.5405
  41   0.0000      -0.024585        -0.6690
  42   0.0000      -0.021805        -0.5933

-------
TIMINGS
-------

FINAL SINGLE POINT ENERGY      -544.971433544746
                    ***********************HURRAY************************

DIPOLE MOMENT
-------------
                                X             Y             Z
Electronic contribution:      7.02452       1.24724       1.92710
Nuclear contribution   :     -7.57377      -1.48213      -2.23970
                        -----------------------------------------
Total Dipole Moment    :     -0.54925      -0.23489      -0.31260
                        -----------------------------------------
Magnitude (a.u.)       :      0.67422
Magnitude (Debye)      :      1.71372

Rotational constants in cm-1:     0.049114     0.041654     0.022539
Rotational constants in MHz :  1472.403045  1248.741055   675.690498

                             ****ORCA TERMINATED NORMALLY****
TOTAL RUN TIME: 1 days 15 hours 47 minutes 43 seconds 451 msec
