                         Program Version 4.1.0  - RELEASE  -
|  1> ! B3LYP/G aug-cc-pVDZ TightSCF Grid7 NEB-TS
|  2> %scf MaxIter 1000 end
|  3> %geom MaxIter 1000 TolE 1e-8 TolRMSG 5e-7 TolMaxG 1e-6 Convergence tight end
|  4> %neb
|  5>   Nimages 12
|  6>   neb_end_xyzfile "3-NO2-C6H3-N2-v2-final.xyz"
|  7> end
|  8> * xyzfile 0 1 3-NO2-C6H3-N2-v2-source.xyz
|  9> %pal nprocs 42 end
| 10>
| 11>                          ****END OF INPUT****
 Total Charge           Charge          ....    0
 Multiplicity           Mult            ....    1
 Number of Electrons    NEL             ....   76

MULLIKEN ATOMIC CHARGES
-----------------------
   0 C :    0.822556
   1 C :    1.031894
   2 C :    1.016403
   3 C :   -1.406667
   4 C :    0.860812
   5 C :    0.949250
   6 H :   -0.693165
   7 N :    0.518884
   8 N :   -0.808784
   9 H :   -0.813255
  10 N :    0.659470
  11 O :   -0.706576
  12 O :   -0.647489
  13 H :   -0.783332
Sum of atomic charges:    0.0000000

LOEWDIN ATOMIC CHARGES
----------------------
   0 C :    0.028162
   1 C :    0.055670
   2 C :   -0.288156
   3 C :    0.098145
   4 C :   -0.196928
   5 C :    0.069193
   6 H :    0.010513
   7 N :    0.019558
   8 N :    0.338973
   9 H :    0.000599
  10 N :   -0.403077
  11 O :    0.113416
  12 O :    0.140464
  13 H :    0.013467

  Mayer bond orders larger than 0.1
B(  0-C ,  1-C ) :   1.7085 B(  0-C ,  2-C ) :  -0.2457 B(  0-C ,  3-C ) :  -0.1099
B(  0-C ,  4-C ) :  -0.1789 B(  0-C ,  5-C ) :   1.4602 B(  0-C ,  6-H ) :  -0.2173
B(  0-C ,  9-H ) :   0.2311 B(  1-C ,  2-C ) :   0.8020 B(  1-C ,  6-H ) :   0.1717
B(  1-C ,  7-N ) :  -0.1235 B(  1-C ,  8-N ) :   0.1467 B(  1-C , 13-H ) :  -0.5434
B(  2-C ,  3-C ) :   1.0568 B(  2-C ,  4-C ) :   0.3312 B(  2-C ,  6-H ) :  -0.1662
B(  2-C ,  7-N ) :   0.7885 B(  2-C ,  8-N ) :  -0.4945 B(  2-C , 13-H ) :   0.7291
B(  3-C ,  4-C ) :   0.7250 B(  3-C , 10-N ) :  -0.1453 B(  3-C , 13-H ) :   0.1318
B(  4-C ,  5-C ) :   0.6906 B(  4-C ,  9-H ) :   0.2491 B(  4-C , 10-N ) :   0.5633
B(  4-C , 11-O ) :   0.2182 B(  4-C , 12-O ) :   0.1112 B(  5-C ,  6-H ) :   0.4993
B(  5-C ,  9-H ) :  -0.3167 B(  5-C , 11-O ) :  -0.1403 B(  7-N ,  8-N ) :   1.2902
B(  7-N , 13-H ) :  -0.1323 B( 10-N , 11-O ) :   0.8608 B( 10-N , 12-O ) :   0.9379
B( 11-O , 12-O ) :   0.3002

FINAL SINGLE POINT ENERGY      -544.981466088573
FINAL SINGLE POINT ENERGY      -544.978580709223
FINAL SINGLE POINT ENERGY      -544.978585606913
FINAL SINGLE POINT ENERGY      -544.978555668293
FINAL SINGLE POINT ENERGY      -544.978601270479
FINAL SINGLE POINT ENERGY      -544.978592775556
FINAL SINGLE POINT ENERGY      -544.978594146779
FINAL SINGLE POINT ENERGY      -544.978595494357
FINAL SINGLE POINT ENERGY      -544.978562869615
FINAL SINGLE POINT ENERGY      -544.978599780045
FINAL SINGLE POINT ENERGY      -544.978605951508
FINAL SINGLE POINT ENERGY      -544.978606274437
FINAL SINGLE POINT ENERGY      -544.978606560456
FINAL SINGLE POINT ENERGY      -544.978606815223
FINAL SINGLE POINT ENERGY      -544.978607046864
FINAL SINGLE POINT ENERGY      -544.978607191225
FINAL SINGLE POINT ENERGY      -544.978607423830
FINAL SINGLE POINT ENERGY      -544.978607579639

CARTESIAN COORDINATES (ANGSTROEM)
---------------------------------
  C     -0.604177   -1.008706   -1.202281
  C      0.689241   -1.364701   -0.820518
  C      1.209330   -0.540257    0.176140
  C      0.735730    0.519402    0.847171
  C     -0.558912    0.808023    0.405749
  C     -1.236021    0.087703   -0.585068
  H     -1.122517   -1.576062   -1.973936
  N      2.692474   -0.932857    0.625942
  N      3.675614   -0.938417    1.144044
  H     -2.244728    0.376303   -0.873764
  N     -1.296462    1.967105    1.022190
  O     -2.433055    2.197088    0.602556
  O     -0.734176    2.608220    1.894656
  H      1.227658   -2.202844   -1.262882

FINAL SINGLE POINT ENERGY      -544.978607731160
                    ***********************HURRAY********************
 Multiplicity           Mult            ....    1
 Number of Electrons    NEL             ....   76
 Basis Dimension        Dim             ....  280

ORBITAL ENERGIES
----------------

  NO   OCC          E(Eh)            E(eV)
   0   2.0000     -19.175854      -521.8015
   1   2.0000     -19.173323      -521.7326
   2   2.0000     -14.557627      -396.1332
   3   2.0000     -14.541891      -395.7050
   4   2.0000     -14.517785      -395.0490
   5   2.0000     -10.293447      -280.0989
   6   2.0000     -10.260628      -279.2059
   7   2.0000     -10.251596      -278.9601
   8   2.0000     -10.234213      -278.4871
   9   2.0000     -10.233455      -278.4665
  10   2.0000     -10.192027      -277.3391
  11   2.0000      -1.223172       -33.2842
  12   2.0000      -1.205750       -32.8101
  13   2.0000      -1.051143       -28.6031
  14   2.0000      -0.917252       -24.9597
  15   2.0000      -0.832887       -22.6640
  16   2.0000      -0.804680       -21.8965
  17   2.0000      -0.714723       -19.4486
  18   2.0000      -0.710011       -19.3204
  19   2.0000      -0.627309       -17.0699
  20   2.0000      -0.580795       -15.8042
  21   2.0000      -0.557504       -15.1705
  22   2.0000      -0.549411       -14.9502
  23   2.0000      -0.541458       -14.7338
  24   2.0000      -0.526706       -14.3324
  25   2.0000      -0.525371       -14.2961
  26   2.0000      -0.512116       -13.9354
  27   2.0000      -0.510376       -13.8880
  28   2.0000      -0.477885       -13.0039
  29   2.0000      -0.434692       -11.8286
  30   2.0000      -0.416163       -11.3244
  31   2.0000      -0.412663       -11.2291
  32   2.0000      -0.311720        -8.4823
  33   2.0000      -0.307114        -8.3570
  34   2.0000      -0.303828        -8.2676
  35   2.0000      -0.291546        -7.9334
  36   2.0000      -0.290544        -7.9061
  37   2.0000      -0.239120        -6.5068
  38   0.0000      -0.122371        -3.3299
  39   0.0000      -0.120310        -3.2738
  40   0.0000      -0.090243        -2.4556
  41   0.0000      -0.030431        -0.8281
  42   0.0000      -0.028137        -0.7656

-------
TIMINGS
-------

FINAL SINGLE POINT ENERGY      -544.978607861350
                    ***********************HURRAY************************

DIPOLE MOMENT
-------------
                                X             Y             Z
Electronic contribution:      3.81813       1.75866       3.57448
Nuclear contribution   :     -2.42991      -4.21027      -4.97004
                        -----------------------------------------
Total Dipole Moment    :      1.38823      -2.45161      -1.39556
                        -----------------------------------------
Magnitude (a.u.)       :      3.14407
Magnitude (Debye)      :      7.99158

Rotational constants in cm-1:     0.071790     0.025246     0.018678
Rotational constants in MHz :  2152.218367   756.867599   559.953371

                             ****ORCA TERMINATED NORMALLY****
TOTAL RUN TIME: 0 days 12 hours 37 minutes 12 seconds 985 msec
