                         Program Version 4.1.0  - RELEASE  -
|  1> ! B3LYP/G aug-cc-pVDZ TightSCF Grid7 NEB-TS
|  2> %scf MaxIter 1000 end
|  3> %geom MaxIter 1000 TolE 1e-8 TolRMSG 5e-7 TolMaxG 1e-6 Convergence tight end
|  4> %neb
|  5>   Nimages 12
|  6>   neb_end_xyzfile "3-NO2-C6H3-N2-v1-final.xyz"
|  7> end
|  8> * xyzfile 0 1 3-NO2-C6H3-N2-v1-source.xyz
|  9> %pal nprocs 42 end
| 10>
| 11>                          ****END OF INPUT****
 Total Charge           Charge          ....    0
 Multiplicity           Mult            ....    1
 Number of Electrons    NEL             ....   76

MULLIKEN ATOMIC CHARGES
-----------------------
   0 C :    0.680130
   1 C :   -1.431809
   2 C :    0.982615
   3 C :    1.078005
   4 C :    0.990022
   5 C :    0.914139
   6 H :   -0.671959
   7 H :   -0.793898
   8 N :    0.519572
   9 N :   -0.777686
  10 H :   -0.797899
  11 N :    0.659847
  12 O :   -0.677657
  13 O :   -0.673421
Sum of atomic charges:   -0.0000000

LOEWDIN ATOMIC CHARGES
----------------------
   0 C :   -0.057957
   1 C :    0.062015
   2 C :   -0.292820
   3 C :    0.101132
   4 C :   -0.136503
   5 C :    0.067282
   6 H :   -0.010087
   7 H :    0.010633
   8 N :    0.017575
   9 N :    0.340567
  10 H :    0.006749
  11 N :   -0.391664
  12 O :    0.146301
  13 O :    0.136777

  Mayer bond orders larger than 0.1
B(  0-C ,  1-C ) :   1.1321 B(  0-C ,  2-C ) :   0.2493 B(  0-C ,  3-C ) :   0.2959
B(  0-C ,  4-C ) :  -0.5627 B(  0-C ,  5-C ) :   1.4592 B(  0-C ,  6-H ) :   0.1566
B(  0-C , 10-H ) :   0.4072 B(  1-C ,  2-C ) :   0.5327 B(  1-C ,  4-C ) :  -0.2810
B(  1-C ,  5-C ) :   0.2126 B(  1-C ,  6-H ) :  -0.2246 B(  2-C ,  3-C ) :   1.0039
B(  2-C ,  7-H ) :   0.6309 B(  2-C ,  8-N ) :   0.7743 B(  2-C ,  9-N ) :  -0.4942
B(  3-C ,  4-C ) :   0.6814 B(  3-C ,  7-H ) :  -0.3345 B(  3-C ,  8-N ) :  -0.1782
B(  3-C ,  9-N ) :   0.1607 B(  3-C , 11-N ) :  -0.1257 B(  4-C ,  5-C ) :   0.3253
B(  4-C , 11-N ) :   0.6399 B(  4-C , 12-O ) :   0.1643 B(  4-C , 13-O ) :   0.1130
B(  5-C ,  6-H ) :   0.4291 B(  5-C , 10-H ) :  -0.3146 B(  7-H ,  8-N ) :  -0.1126
B(  8-N ,  9-N ) :   1.2969 B( 11-N , 12-O ) :   0.8846 B( 11-N , 13-O ) :   0.9267
B( 12-O , 13-O ) :   0.2924

FINAL SINGLE POINT ENERGY      -544.977489133083
FINAL SINGLE POINT ENERGY      -544.974263678765
FINAL SINGLE POINT ENERGY      -544.974267817246
FINAL SINGLE POINT ENERGY      -544.974267373754
FINAL SINGLE POINT ENERGY      -544.974266706241
FINAL SINGLE POINT ENERGY      -544.974188276168
FINAL SINGLE POINT ENERGY      -544.974268846956
FINAL SINGLE POINT ENERGY      -544.974269262229
FINAL SINGLE POINT ENERGY      -544.974269616578
FINAL SINGLE POINT ENERGY      -544.974269908935

CARTESIAN COORDINATES (ANGSTROEM)
---------------------------------
  C     -0.530091   -1.235248   -1.350934
  C      0.791003   -1.575678   -0.943966
  C      1.223046   -0.737449    0.011194
  C      0.670970    0.357685    0.666015
  C     -0.617398    0.624539    0.212705
  C     -1.224306   -0.160647   -0.789382
  H     -1.031872   -1.821392   -2.124873
  H      1.151156    0.954834    1.438024
  N      2.708843   -1.079351    0.504453
  N      3.701890   -1.567295    0.609675
  H     -2.234661    0.092779   -1.106641
  N     -1.347932    1.755971    0.804161
  O     -2.483492    1.979840    0.394673
  O     -0.777155    2.411412    1.674896

FINAL SINGLE POINT ENERGY      -544.974270167938
                    ***********************HURRAY********************
 Multiplicity           Mult            ....    1
 Number of Electrons    NEL             ....   76
 Basis Dimension        Dim             ....  280

ORBITAL ENERGIES
----------------

  NO   OCC          E(Eh)            E(eV)
   0   2.0000     -19.197272      -522.3843
   1   2.0000     -19.196216      -522.3556
   2   2.0000     -14.585730      -396.8979
   3   2.0000     -14.541390      -395.6913
   4   2.0000     -14.517250      -395.0345
   5   2.0000     -10.292938      -280.0851
   6   2.0000     -10.272832      -279.5380
   7   2.0000     -10.255223      -279.0588
   8   2.0000     -10.233546      -278.4689
   9   2.0000     -10.225103      -278.2392
  10   2.0000     -10.190494      -277.2974
  11   2.0000      -1.247044       -33.9338
  12   2.0000      -1.205069       -32.7916
  13   2.0000      -1.074206       -29.2306
  14   2.0000      -0.921556       -25.0768
  15   2.0000      -0.843062       -22.9409
  16   2.0000      -0.801880       -21.8203
  17   2.0000      -0.734341       -19.9824
  18   2.0000      -0.701339       -19.0844
  19   2.0000      -0.632529       -17.2120
  20   2.0000      -0.592676       -16.1275
  21   2.0000      -0.563770       -15.3409
  22   2.0000      -0.552310       -15.0291
  23   2.0000      -0.551476       -15.0064
  24   2.0000      -0.548280       -14.9195
  25   2.0000      -0.529832       -14.4175
  26   2.0000      -0.517818       -14.0906
  27   2.0000      -0.503303       -13.6956
  28   2.0000      -0.476710       -12.9719
  29   2.0000      -0.458479       -12.4758
  30   2.0000      -0.413397       -11.2491
  31   2.0000      -0.394223       -10.7274
  32   2.0000      -0.332460        -9.0467
  33   2.0000      -0.330169        -8.9844
  34   2.0000      -0.312768        -8.5109
  35   2.0000      -0.306986        -8.3535
  36   2.0000      -0.290326        -7.9002
  37   2.0000      -0.233415        -6.3516
  38   0.0000      -0.122706        -3.3390
  39   0.0000      -0.118492        -3.2243
  40   0.0000      -0.110190        -2.9984
  41   0.0000      -0.040931        -1.1138
  42   0.0000      -0.021077        -0.5735

-------
TIMINGS
-------

FINAL SINGLE POINT ENERGY      -544.974270383355
                    ***********************HURRAY************************

DIPOLE MOMENT
-------------
                                X             Y             Z
Electronic contribution:      3.65663       0.53583       2.40620
Nuclear contribution   :     -2.39582      -1.13096      -2.25167
                        -----------------------------------------
Total Dipole Moment    :      1.26081      -0.59513       0.15453
                        -----------------------------------------
Magnitude (a.u.)       :      1.40275
Magnitude (Debye)      :      3.56551

Rotational constants in cm-1:     0.079766     0.024008     0.018454
Rotational constants in MHz :  2391.325550   719.734967   553.226338

                             ****ORCA TERMINATED NORMALLY****
TOTAL RUN TIME: 0 days 10 hours 41 minutes 10 seconds 507 msec
