                         Program Version 4.1.0  - RELEASE  -
|  1> ! B3LYP/G aug-cc-pVDZ TightSCF Grid7 NEB-TS
|  2> %scf MaxIter 1000 end
|  3> %geom MaxIter 1000 TolE 1e-8 TolRMSG 5e-7 TolMaxG 1e-6 Convergence tight end
|  4> %neb
|  5>   Nimages 12
|  6>   neb_end_xyzfile "4-CH3O-C6H3-N2-final.xyz"
|  7> end
|  8> * xyzfile 0 1 4-CH3O-C6H3-N2-source.xyz
|  9> %pal nprocs 42 end
| 10>
| 11>                          ****END OF INPUT****
 Total Charge           Charge          ....    0
 Multiplicity           Mult            ....    1
 Number of Electrons    NEL             ....   70

MULLIKEN ATOMIC CHARGES
-----------------------
   0 C :    1.455694
   1 C :    0.917755
   2 C :    1.142534
   3 C :   -1.584939
   4 C :    0.910342
   5 C :    0.648500
   6 H :   -1.193352
   7 H :   -0.795750
   8 H :   -0.786624
   9 N :    0.465257
  10 N :   -0.872888
  11 O :   -0.625669
  12 C :    1.239058
  13 H :   -0.552082
  14 H :   -0.183915
  15 H :   -0.183920
Sum of atomic charges:    0.0000000

LOEWDIN ATOMIC CHARGES
----------------------
   0 C :    0.038000
   1 C :    0.040135
   2 C :   -0.312098
   3 C :    0.041978
   4 C :   -0.059206
   5 C :   -0.223383
   6 H :   -0.010301
   7 H :    0.008988
   8 H :   -0.010212
   9 N :   -0.025280
  10 N :    0.309612
  11 O :    0.114793
  12 C :    0.135543
  13 H :   -0.019692
  14 H :   -0.014437
  15 H :   -0.014441

  Mayer bond orders larger than 0.1
B(  0-C ,  1-C ) :   1.8257 B(  0-C ,  2-C ) :  -0.2279 B(  0-C ,  4-C ) :  -0.4477
B(  0-C ,  5-C ) :   0.4200 B(  0-C ,  6-H ) :  -1.2198 B(  0-C ,  7-H ) :   0.2443
B(  0-C , 11-O ) :   0.1749 B(  0-C , 12-C ) :  -0.1193 B(  1-C ,  2-C ) :   0.7358
B(  1-C ,  3-C ) :  -0.1977 B(  1-C ,  4-C ) :   0.3758 B(  1-C ,  5-C ) :  -0.4790
B(  1-C ,  6-H ) :   0.2992 B(  1-C ,  7-H ) :  -0.7176 B(  1-C ,  9-N ) :  -0.1144
B(  1-C , 10-N ) :   0.1505 B(  2-C ,  3-C ) :   0.5508 B(  2-C ,  4-C ) :   0.1584
B(  2-C ,  5-C ) :   0.2322 B(  2-C ,  6-H ) :  -0.2232 B(  2-C ,  7-H ) :   0.7740
B(  2-C ,  9-N ) :   0.9614 B(  2-C , 10-N ) :  -0.4997 B(  3-C ,  4-C ) :   1.2814
B(  3-C ,  7-H ) :   0.1107 B(  4-C ,  5-C ) :   1.0079 B(  4-C ,  6-H ) :   0.1486
B(  4-C ,  8-H ) :  -0.1063 B(  5-C ,  6-H ) :   0.5002 B(  5-C ,  7-H ) :  -0.1275
B(  5-C ,  8-H ) :   0.3480 B(  5-C , 11-O ) :   0.2425 B(  7-H ,  9-N ) :  -0.1240
B(  8-H , 11-O ) :  -0.1113 B(  9-N , 10-N ) :   1.2053 B( 11-O , 12-C ) :   0.8458
B( 12-C , 13-H ) :   0.7824 B( 12-C , 14-H ) :   0.8841 B( 12-C , 15-H ) :   0.8841
B( 13-H , 14-H ) :  -0.1376 B( 13-H , 15-H ) :  -0.1376

FINAL SINGLE POINT ENERGY      -454.983706953999
FINAL SINGLE POINT ENERGY      -454.976664823674
FINAL SINGLE POINT ENERGY      -454.976669983118
FINAL SINGLE POINT ENERGY      -454.976666727832
FINAL SINGLE POINT ENERGY      -454.976667549495
FINAL SINGLE POINT ENERGY      -454.976668072895

CARTESIAN COORDINATES (ANGSTROEM)
---------------------------------
  C     -0.016004   -0.806576   -0.071181
  C      1.311595   -0.892866   -0.486156
  C      1.941952    0.342625   -0.562834
  C      1.544260    1.593898   -0.323023
  C      0.201593    1.647254    0.093453
  C     -0.566452    0.469431    0.217801
  H     -0.605303   -1.714273    0.023844
  H      1.791855   -1.843245   -0.722919
  H     -0.294282    2.591396    0.334400
  N      3.496886    0.235276   -1.049346
  N      4.524631    0.559121   -1.333577
  O     -1.854560    0.643248    0.628955
  C     -2.694530   -0.497119    0.778884
  H     -3.662784   -0.111078    1.111956
  H     -2.296814   -1.189306    1.536911
  H     -2.822044   -1.027787   -0.177168

FINAL SINGLE POINT ENERGY      -454.976668425557
                    ***********************HURRAY********************
 Multiplicity           Mult            ....    1
 Number of Electrons    NEL             ....   70
 Basis Dimension        Dim             ....  284

ORBITAL ENERGIES
----------------

  NO   OCC          E(Eh)            E(eV)
   0   2.0000     -19.188621      -522.1489
   1   2.0000     -14.506503      -394.7420
   2   2.0000     -14.481665      -394.0661
   3   2.0000     -10.260057      -279.1903
   4   2.0000     -10.253789      -279.0198
   5   2.0000     -10.249648      -278.9071
   6   2.0000     -10.222114      -278.1579
   7   2.0000     -10.204843      -277.6879
   8   2.0000     -10.189826      -277.2793
   9   2.0000     -10.158233      -276.4196
  10   2.0000      -1.169438       -31.8220
  11   2.0000      -1.079492       -29.3745
  12   2.0000      -0.877142       -23.8683
  13   2.0000      -0.785842       -21.3839
  14   2.0000      -0.761510       -20.7217
  15   2.0000      -0.719678       -19.5834
  16   2.0000      -0.656473       -17.8635
  17   2.0000      -0.620221       -16.8771
  18   2.0000      -0.567621       -15.4458
  19   2.0000      -0.537377       -14.6228
  20   2.0000      -0.515957       -14.0399
  21   2.0000      -0.514232       -13.9930
  22   2.0000      -0.504771       -13.7355
  23   2.0000      -0.481699       -13.1077
  24   2.0000      -0.479034       -13.0352
  25   2.0000      -0.457442       -12.4476
  26   2.0000      -0.425939       -11.5904
  27   2.0000      -0.415441       -11.3047
  28   2.0000      -0.391386       -10.6501
  29   2.0000      -0.387320       -10.5395
  30   2.0000      -0.346283        -9.4228
  31   2.0000      -0.341512        -9.2930
  32   2.0000      -0.259920        -7.0728
  33   2.0000      -0.239064        -6.5053
  34   2.0000      -0.205650        -5.5960
  35   0.0000      -0.096992        -2.6393
  36   0.0000      -0.084652        -2.3035
  37   0.0000      -0.022699        -0.6177
  38   0.0000      -0.016673        -0.4537
  39   0.0000      -0.003207        -0.0873

-------
TIMINGS
-------

FINAL SINGLE POINT ENERGY      -454.976668693469
                    ***********************HURRAY************************

DIPOLE MOMENT
-------------
                                X             Y             Z
Electronic contribution:     11.15674       3.11938      -3.12467
Nuclear contribution   :    -11.40763      -4.77999       3.04506
                        -----------------------------------------
Total Dipole Moment    :     -0.25089      -1.66060      -0.07960
                        -----------------------------------------
Magnitude (a.u.)       :      1.68133
Magnitude (Debye)      :      4.27361

Rotational constants in cm-1:     0.164638     0.023221     0.020431
Rotational constants in MHz :  4935.708540   696.147315   612.512327

                             ****ORCA TERMINATED NORMALLY****
TOTAL RUN TIME: 0 days 16 hours 13 minutes 48 seconds 424 msec
