                         Program Version 4.1.0  - RELEASE  -
|  1> ! B3LYP/G aug-cc-pVDZ TightSCF Grid7 NEB-TS
|  2> %scf MaxIter 1000 end
|  3> %geom MaxIter 1000 TolE 1e-8 TolRMSG 5e-7 TolMaxG 1e-6 Convergence tight end
|  4> %neb
|  5>   Nimages 12
|  6>   neb_end_xyzfile "4-HOOC-C6H3-N2-final.xyz"
|  7> end
|  8> * xyzfile 0 1 4-HOOC-C6H3-N2-source.xyz
|  9> %pal nprocs 42 end
| 10>
| 11>                          ****END OF INPUT****
 Total Charge           Charge          ....    0
 Multiplicity           Mult            ....    1
 Number of Electrons    NEL             ....   76

MULLIKEN ATOMIC CHARGES
-----------------------
   0 C :    0.563967
   1 C :   -1.783438
   2 C :    1.067708
   3 C :    0.741104
   4 C :    1.218589
   5 C :    1.690231
   6 H :   -0.908516
   7 H :   -0.810438
   8 H :   -0.930502
   9 N :    0.514234
  10 N :   -0.910661
  11 C :    0.405507
  12 O :   -0.537283
  13 O :   -0.587323
  14 H :    0.266820
Sum of atomic charges:    0.0000000

LOEWDIN ATOMIC CHARGES
----------------------
   0 C :   -0.018367
   1 C :    0.061489
   2 C :   -0.304800
   3 C :    0.047606
   4 C :    0.050449
   5 C :   -0.134176
   6 H :   -0.007672
   7 H :    0.009108
   8 H :    0.002285
   9 N :    0.005884
  10 N :    0.330523
  11 C :   -0.377956
  12 O :    0.113856
  13 O :    0.251669
  14 H :   -0.029896

  Mayer bond orders larger than 0.1
B(  0-C ,  1-C ) :   1.5590 B(  0-C ,  4-C ) :  -0.8039 B(  0-C ,  5-C ) :  -0.7869
B(  0-C ,  8-H ) :   0.1923 B(  0-C , 11-C ) :  -0.4725 B(  1-C ,  2-C ) :   0.4889
B(  1-C ,  3-C ) :  -0.2165 B(  1-C ,  5-C ) :  -0.7358 B(  1-C ,  6-H ) :   0.1008
B(  1-C ,  7-H ) :   0.1293 B(  1-C , 11-C ) :   0.2087 B(  2-C ,  3-C ) :   0.7529
B(  2-C ,  4-C ) :  -0.5813 B(  2-C ,  5-C ) :   0.4532 B(  2-C ,  7-H ) :   0.8834
B(  2-C ,  8-H ) :  -0.2513 B(  2-C ,  9-N ) :   0.8691 B(  2-C , 10-N ) :  -0.4962
B(  2-C , 11-C ) :   0.1892 B(  3-C ,  4-C ) :   1.8158 B(  3-C ,  5-C ) :  -0.7834
B(  3-C ,  7-H ) :  -0.7195 B(  3-C ,  8-H ) :   0.4639 B(  3-C ,  9-N ) :  -0.1278
B(  3-C , 10-N ) :   0.1298 B(  3-C , 11-C ) :   0.3311 B(  4-C ,  5-C ) :   0.8524
B(  4-C ,  6-H ) :   0.2029 B(  4-C ,  7-H ) :   0.1239 B(  4-C ,  8-H ) :  -0.7946
B(  4-C , 11-C ) :  -0.6002 B(  4-C , 13-O ) :   0.1168 B(  5-C ,  6-H ) :  -0.2671
B(  5-C ,  7-H ) :  -0.1235 B(  5-C ,  8-H ) :   0.3908 B(  5-C , 11-C ) :  -0.3804
B(  5-C , 13-O ) :   0.2182 B(  6-H , 11-C ) :   0.1061 B(  7-H ,  9-N ) :  -0.1162
B(  9-N , 10-N ) :   1.1712 B( 11-C , 12-O ) :   1.6136 B( 11-C , 13-O ) :   0.2753
B( 12-O , 13-O ) :   0.1808 B( 13-O , 14-H ) :   0.9076

FINAL SINGLE POINT ENERGY      -529.046551301234
FINAL SINGLE POINT ENERGY      -529.043776344104
FINAL SINGLE POINT ENERGY      -529.043798010348
FINAL SINGLE POINT ENERGY      -529.043801390330
FINAL SINGLE POINT ENERGY      -529.043802666747
FINAL SINGLE POINT ENERGY      -529.043803299564
FINAL SINGLE POINT ENERGY      -529.043800000156
FINAL SINGLE POINT ENERGY      -529.043764151887
FINAL SINGLE POINT ENERGY      -529.043805849388
FINAL SINGLE POINT ENERGY      -529.043806488405
FINAL SINGLE POINT ENERGY      -529.043807038968
FINAL SINGLE POINT ENERGY      -529.043807529632
FINAL SINGLE POINT ENERGY      -529.043807951827
FINAL SINGLE POINT ENERGY      -529.043808311408
FINAL SINGLE POINT ENERGY      -529.043808623158
FINAL SINGLE POINT ENERGY      -529.043808912072

CARTESIAN COORDINATES (ANGSTROEM)
---------------------------------
  C      0.179694   -1.382353   -0.261796
  C      1.582584   -1.150123   -0.305916
  C      1.844952    0.148069   -0.086532
  C      1.056192    1.274117    0.166247
  C     -0.301786    0.988052    0.197821
  C     -0.736507   -0.345364   -0.017366
  H     -0.224333   -2.383979   -0.418658
  H      1.454245    2.276689    0.323670
  H     -1.025352    1.777041    0.385438
  N      3.400816    0.454652   -0.126587
  N      4.504687    0.348312   -0.213730
  C     -2.192561   -0.682589    0.010911
  O     -2.656258   -1.789631   -0.161429
  O     -2.986537    0.397799    0.255712
  H     -3.899836    0.069307    0.252213

FINAL SINGLE POINT ENERGY      -529.043809164715
                    ***********************HURRAY********************
 Multiplicity           Mult            ....    1
 Number of Electrons    NEL             ....   76
 Basis Dimension        Dim             ....  289

ORBITAL ENERGIES
----------------

  NO   OCC          E(Eh)            E(eV)
   0   2.0000     -19.205993      -522.6216
   1   2.0000     -19.148415      -521.0549
   2   2.0000     -14.531174      -395.4133
   3   2.0000     -14.505196      -394.7064
   4   2.0000     -10.331908      -281.1455
   5   2.0000     -10.277935      -279.6768
   6   2.0000     -10.232530      -278.4413
   7   2.0000     -10.225076      -278.2385
   8   2.0000     -10.219737      -278.0932
   9   2.0000     -10.211200      -277.8609
  10   2.0000     -10.171501      -276.7806
  11   2.0000      -1.193697       -32.4822
  12   2.0000      -1.121018       -30.5044
  13   2.0000      -1.031165       -28.0594
  14   2.0000      -0.898063       -24.4375
  15   2.0000      -0.818065       -22.2607
  16   2.0000      -0.771045       -20.9812
  17   2.0000      -0.720996       -19.6193
  18   2.0000      -0.640048       -17.4166
  19   2.0000      -0.633907       -17.2495
  20   2.0000      -0.576738       -15.6938
  21   2.0000      -0.545446       -14.8423
  22   2.0000      -0.538181       -14.6446
  23   2.0000      -0.526322       -14.3220
  24   2.0000      -0.517637       -14.0856
  25   2.0000      -0.498890       -13.5755
  26   2.0000      -0.468179       -12.7398
  27   2.0000      -0.463295       -12.6069
  28   2.0000      -0.460189       -12.5224
  29   2.0000      -0.423106       -11.5133
  30   2.0000      -0.417865       -11.3707
  31   2.0000      -0.393735       -10.7141
  32   2.0000      -0.377843       -10.2816
  33   2.0000      -0.338038        -9.1985
  34   2.0000      -0.294839        -8.0230
  35   2.0000      -0.290143        -7.8952
  36   2.0000      -0.270939        -7.3726
  37   2.0000      -0.216239        -5.8842
  38   0.0000      -0.112895        -3.0720
  39   0.0000      -0.110014        -2.9936
  40   0.0000      -0.048838        -1.3290
  41   0.0000      -0.032701        -0.8898
  42   0.0000      -0.020391        -0.5549

-------
TIMINGS
-------

FINAL SINGLE POINT ENERGY      -529.043809381234
                    ***********************HURRAY************************

DIPOLE MOMENT
-------------
                                X             Y             Z
Electronic contribution:      4.94622      -0.35472      -0.36844
Nuclear contribution   :     -4.37592       2.20664       0.66934
                        -----------------------------------------
Total Dipole Moment    :      0.57031       1.85193       0.30090
                        -----------------------------------------
Magnitude (a.u.)       :      1.96098
Magnitude (Debye)      :      4.98441

Rotational constants in cm-1:     0.128397     0.019089     0.016619
Rotational constants in MHz :  3849.259028   572.280985   498.210520

                             ****ORCA TERMINATED NORMALLY****
TOTAL RUN TIME: 0 days 9 hours 6 minutes 53 seconds 595 msec
