                         Program Version 4.1.0  - RELEASE  -
|  1> ! B3LYP/G aug-cc-pVDZ TightSCF Grid7 NEB-TS
|  2> %scf MaxIter 1000 end
|  3> %geom MaxIter 1000 TolE 1e-8 TolRMSG 5e-7 TolMaxG 1e-6 Convergence tight end
|  4> %neb
|  5>   Nimages 12
|  6>   neb_end_xyzfile "4-NO2-C6H3-N2-final.xyz"
|  7> end
|  8> * xyzfile 0 1 4-NO2-C6H3-N2-source.xyz
|  9> %pal nprocs 42 end
| 10>
| 11>                          ****END OF INPUT****
 Total Charge           Charge          ....    0
 Multiplicity           Mult            ....    1
 Number of Electrons    NEL             ....   76

MULLIKEN ATOMIC CHARGES
-----------------------
   0 C :    0.905625
   1 C :   -1.614268
   2 C :    1.091095
   3 C :    0.879209
   4 C :    1.289974
   5 C :    0.718298
   6 H :   -0.713605
   7 H :   -0.777254
   8 H :   -0.808447
   9 N :    0.698775
  10 O :   -0.663877
  11 O :   -0.677399
  12 N :    0.516412
  13 N :   -0.844537
Sum of atomic charges:    0.0000000

LOEWDIN ATOMIC CHARGES
----------------------
   0 C :   -0.016154
   1 C :    0.066831
   2 C :   -0.299978
   3 C :    0.054364
   4 C :    0.056310
   5 C :   -0.121890
   6 H :   -0.013610
   7 H :    0.012668
   8 H :    0.002203
   9 N :   -0.384292
  10 O :    0.150060
  11 O :    0.139207
  12 N :    0.015982
  13 N :    0.338298

  Mayer bond orders larger than 0.1
B(  0-C ,  1-C ) :   1.3956 B(  0-C ,  2-C ) :   0.2271 B(  0-C ,  3-C ) :   0.3200
B(  0-C ,  4-C ) :  -0.2446 B(  0-C ,  5-C ) :   0.3685 B(  0-C ,  6-H ) :   0.1953
B(  0-C ,  8-H ) :   0.1297 B(  1-C ,  2-C ) :   0.6538 B(  1-C ,  3-C ) :  -0.2683
B(  1-C ,  4-C ) :   0.1000 B(  1-C ,  5-C ) :  -0.2201 B(  1-C ,  7-H ) :   0.1195
B(  2-C ,  3-C ) :   0.9102 B(  2-C ,  4-C ) :  -0.3872 B(  2-C ,  5-C ) :   0.2588
B(  2-C ,  7-H ) :   0.7918 B(  2-C ,  8-H ) :  -0.1915 B(  2-C , 12-N ) :   0.8055
B(  2-C , 13-N ) :  -0.4824 B(  3-C ,  4-C ) :   2.0723 B(  3-C ,  5-C ) :  -0.5125
B(  3-C ,  7-H ) :  -0.6415 B(  3-C ,  8-H ) :   0.2507 B(  3-C , 12-N ) :  -0.1375
B(  3-C , 13-N ) :   0.1404 B(  4-C ,  5-C ) :   0.4498 B(  4-C ,  7-H ) :   0.2153
B(  4-C ,  8-H ) :  -0.5742 B(  4-C ,  9-N ) :  -0.1153 B(  5-C ,  7-H ) :  -0.1709
B(  5-C ,  8-H ) :   0.5454 B(  5-C ,  9-N ) :   0.6100 B(  5-C , 10-O ) :   0.1501
B(  5-C , 11-O ) :   0.1420 B(  7-H , 12-N ) :  -0.1216 B(  9-N , 10-O ) :   0.9175
B(  9-N , 11-O ) :   0.9099 B( 10-O , 11-O ) :   0.3068 B( 12-N , 13-N ) :   1.2325

FINAL SINGLE POINT ENERGY      -544.976160637037
FINAL SINGLE POINT ENERGY      -544.973347707029
FINAL SINGLE POINT ENERGY      -544.973359211628
FINAL SINGLE POINT ENERGY      -544.973361968180
FINAL SINGLE POINT ENERGY      -544.973319153178
FINAL SINGLE POINT ENERGY      -544.973365613133
FINAL SINGLE POINT ENERGY      -544.973368102087
FINAL SINGLE POINT ENERGY      -544.973370225083
FINAL SINGLE POINT ENERGY      -544.973372037760
FINAL SINGLE POINT ENERGY      -544.973373764103
FINAL SINGLE POINT ENERGY      -544.973395599097
FINAL SINGLE POINT ENERGY      -544.973395690335
FINAL SINGLE POINT ENERGY      -544.973395784584
FINAL SINGLE POINT ENERGY      -544.973395873094
FINAL SINGLE POINT ENERGY      -544.973395943933
FINAL SINGLE POINT ENERGY      -544.973396032168
FINAL SINGLE POINT ENERGY      -544.973396095365
FINAL SINGLE POINT ENERGY      -544.973396165288

CARTESIAN COORDINATES (ANGSTROEM)
---------------------------------
  C     -0.397276   -1.192919   -0.644044
  C      1.020970   -1.194949   -0.755247
  C      1.543678   -0.103849   -0.177543
  C      1.008388    1.002083    0.489186
  C     -0.376448    0.963969    0.574393
  C     -1.046102   -0.137860    0.001702
  H     -1.001995   -2.001597   -1.053632
  H      1.602338    1.816102    0.904591
  H     -0.943102    1.750567    1.063857
  N     -2.530380   -0.156820    0.104446
  O     -3.126940   -1.096141   -0.410362
  O     -3.073372    0.771161    0.700707
  N      3.133159   -0.074677   -0.285331
  N      4.187082   -0.345069   -0.512725

FINAL SINGLE POINT ENERGY      -544.973396223340
                    ***********************HURRAY********************
 Multiplicity           Mult            ....    1
 Number of Electrons    NEL             ....   76
 Basis Dimension        Dim             ....  280

ORBITAL ENERGIES
----------------

  NO   OCC          E(Eh)            E(eV)
   0   2.0000     -19.192979      -522.2675
   1   2.0000     -19.192899      -522.2653
   2   2.0000     -14.579552      -396.7298
   3   2.0000     -14.542396      -395.7187
   4   2.0000     -14.517609      -395.0442
   5   2.0000     -10.292471      -280.0724
   6   2.0000     -10.269407      -279.4448
   7   2.0000     -10.248373      -278.8724
   8   2.0000     -10.235903      -278.5331
   9   2.0000     -10.230225      -278.3786
  10   2.0000     -10.187509      -277.2162
  11   2.0000      -1.242619       -33.8134
  12   2.0000      -1.205691       -32.8085
  13   2.0000      -1.070066       -29.1180
  14   2.0000      -0.917622       -24.9698
  15   2.0000      -0.846114       -23.0239
  16   2.0000      -0.790108       -21.4999
  17   2.0000      -0.755693       -20.5634
  18   2.0000      -0.662052       -18.0154
  19   2.0000      -0.649970       -17.6866
  20   2.0000      -0.586676       -15.9643
  21   2.0000      -0.570089       -15.5129
  22   2.0000      -0.549695       -14.9580
  23   2.0000      -0.548727       -14.9316
  24   2.0000      -0.546148       -14.8615
  25   2.0000      -0.535703       -14.5772
  26   2.0000      -0.526062       -14.3149
  27   2.0000      -0.488762       -13.2999
  28   2.0000      -0.476998       -12.9798
  29   2.0000      -0.443243       -12.0613
  30   2.0000      -0.411806       -11.2058
  31   2.0000      -0.408245       -11.1089
  32   2.0000      -0.328088        -8.9277
  33   2.0000      -0.326675        -8.8893
  34   2.0000      -0.309414        -8.4196
  35   2.0000      -0.307336        -8.3630
  36   2.0000      -0.286718        -7.8020
  37   2.0000      -0.231244        -6.2925
  38   0.0000      -0.128877        -3.5069
  39   0.0000      -0.121581        -3.3084
  40   0.0000      -0.089366        -2.4318
  41   0.0000      -0.048492        -1.3195
  42   0.0000      -0.025654        -0.6981

-------
TIMINGS
-------

FINAL SINGLE POINT ENERGY      -544.973396285041
                    ***********************HURRAY************************

DIPOLE MOMENT
-------------
                                X             Y             Z
Electronic contribution:      2.37589      -0.77885      -0.62593
Nuclear contribution   :     -0.16829       1.83766       1.05625
                        -----------------------------------------
Total Dipole Moment    :      2.20761       1.05881       0.43033
                        -----------------------------------------
Magnitude (a.u.)       :      2.48592
Magnitude (Debye)      :      6.31870

Rotational constants in cm-1:     0.131515     0.019617     0.017072
Rotational constants in MHz :  3942.726805   588.114780   511.790778

                             ****ORCA TERMINATED NORMALLY****
TOTAL RUN TIME: 0 days 13 hours 46 minutes 55 seconds 384 msec
