                         Program Version 4.1.0  - RELEASE  -
|  1> ! B3LYP/G aug-cc-pVDZ TightSCF Grid7 NEB-TS
|  2> %scf MaxIter 1000 end
|  3> %geom MaxIter 1000 TolE 1e-8 TolRMSG 5e-7 TolMaxG 1e-6 Convergence tight end
|  4> %neb
|  5>   Nimages 12
|  6>   neb_end_xyzfile "C6H4-N2-final.xyz"
|  7> end
|  8> * xyzfile 0 1 C6H4-N2-source.xyz
|  9> %pal nprocs 42 end
| 10>
| 11>                          ****END OF INPUT****
 Total Charge           Charge          ....    0
 Multiplicity           Mult            ....    1
 Number of Electrons    NEL             ....   54

MULLIKEN ATOMIC CHARGES
-----------------------
   0 C :    0.768191
   1 C :   -1.466270
   2 C :    1.312673
   3 C :    0.864112
   4 C :    0.895088
   5 C :    0.837694
   6 H :   -0.666992
   7 N :    0.467226
   8 N :   -0.832997
   9 H :   -0.728387
  10 H :   -0.693578
  11 H :   -0.756760
Sum of atomic charges:   -0.0000000

LOEWDIN ATOMIC CHARGES
----------------------
   0 C :   -0.085001
   1 C :    0.043140
   2 C :   -0.312141
   3 C :    0.033535
   4 C :    0.002330
   5 C :    0.007212
   6 H :   -0.017754
   7 N :   -0.004880
   8 N :    0.320062
   9 H :    0.004721
  10 H :    0.003105
  11 H :    0.005671

  Mayer bond orders larger than 0.1
B(  0-C ,  1-C ) :   1.0916 B(  0-C ,  2-C ) :   0.1604 B(  0-C ,  3-C ) :   0.3194
B(  0-C ,  4-C ) :  -0.2578 B(  0-C ,  5-C ) :   1.1856 B(  0-C ,  6-H ) :   0.3334
B(  0-C ,  9-H ) :   0.2049 B(  1-C ,  2-C ) :   0.5960 B(  1-C ,  6-H ) :  -0.1396
B(  1-C ,  7-N ) :   0.1002 B(  1-C ,  8-N ) :   0.1055 B(  2-C ,  3-C ) :   0.7295
B(  2-C ,  4-C ) :  -0.3243 B(  2-C ,  7-N ) :   0.8438 B(  2-C ,  8-N ) :  -0.4280
B(  2-C , 10-H ) :  -0.1255 B(  2-C , 11-H ) :   0.5165 B(  3-C ,  4-C ) :   1.6906
B(  3-C ,  5-C ) :  -0.2957 B(  3-C ,  7-N ) :  -0.1055 B(  3-C ,  8-N ) :   0.1447
B(  3-C , 10-H ) :   0.1834 B(  3-C , 11-H ) :  -0.2983 B(  4-C ,  5-C ) :   1.1340
B(  4-C ,  9-H ) :   0.1053 B(  5-C ,  6-H ) :   0.1198 B(  5-C , 10-H ) :   0.2291
B(  7-N ,  8-N ) :   1.2438 B(  7-N , 11-H ) :  -0.1047

FINAL SINGLE POINT ENERGY      -340.440794474330
FINAL SINGLE POINT ENERGY      -340.437018733090
FINAL SINGLE POINT ENERGY      -340.437022633091
FINAL SINGLE POINT ENERGY      -340.437021899430
FINAL SINGLE POINT ENERGY      -340.437023464444
FINAL SINGLE POINT ENERGY      -340.437024780285
FINAL SINGLE POINT ENERGY      -340.437025904204
FINAL SINGLE POINT ENERGY      -340.437026873050
FINAL SINGLE POINT ENERGY      -340.437027720996
FINAL SINGLE POINT ENERGY      -340.437028435213
FINAL SINGLE POINT ENERGY      -340.437029065925
FINAL SINGLE POINT ENERGY      -340.437029590648
FINAL SINGLE POINT ENERGY      -340.437030048918
FINAL SINGLE POINT ENERGY      -340.437030452472
FINAL SINGLE POINT ENERGY      -340.437030786859

CARTESIAN COORDINATES (ANGSTROEM)
---------------------------------
  C     -0.836057   -0.899135   -1.106470
  C      0.579791   -0.969747   -0.984200
  C      1.005983   -0.144301   -0.016581
  C      0.372299    0.736813    0.862609
  C     -1.009025    0.761623    0.694846
  C     -1.603196   -0.058726   -0.290892
  H     -1.352056   -1.511169   -1.852150
  N      2.592817   -0.188780    0.158485
  N      3.666677   -0.449199    0.023654
  H     -2.688918   -0.029667   -0.412243
  H     -1.623445    1.409140    1.319941
  H      0.895131    1.343148    1.603001

FINAL SINGLE POINT ENERGY      -340.437031081216
                    ***********************HURRAY********************
 Multiplicity           Mult            ....    1
 Number of Electrons    NEL             ....   54
 Basis Dimension        Dim             ....  220

ORBITAL ENERGIES
----------------

  NO   OCC          E(Eh)            E(eV)
   0   2.0000     -14.518580      -395.0706
   1   2.0000     -14.492313      -394.3559
   2   2.0000     -10.263333      -279.2795
   3   2.0000     -10.221549      -278.1425
   4   2.0000     -10.206730      -277.7392
   5   2.0000     -10.203220      -277.6437
   6   2.0000     -10.197554      -277.4895
   7   2.0000     -10.161111      -276.4979
   8   2.0000      -1.180906       -32.1341
   9   2.0000      -0.882661       -24.0184
  10   2.0000      -0.793011       -21.5789
  11   2.0000      -0.756788       -20.5932
  12   2.0000      -0.679054       -18.4780
  13   2.0000      -0.619871       -16.8675
  14   2.0000      -0.568974       -15.4826
  15   2.0000      -0.529109       -14.3978
  16   2.0000      -0.525665       -14.3041
  17   2.0000      -0.513723       -13.9791
  18   2.0000      -0.489895       -13.3307
  19   2.0000      -0.455701       -12.4003
  20   2.0000      -0.440017       -11.9735
  21   2.0000      -0.396925       -10.8009
  22   2.0000      -0.383977       -10.4485
  23   2.0000      -0.363014        -9.8781
  24   2.0000      -0.276480        -7.5234
  25   2.0000      -0.259222        -7.0538
  26   2.0000      -0.206914        -5.6304
  27   0.0000      -0.100443        -2.7332
  28   0.0000      -0.095605        -2.6015
  29   0.0000      -0.023868        -0.6495
  30   0.0000      -0.015091        -0.4106
  31   0.0000       0.000372         0.0101

-------
TIMINGS
-------

FINAL SINGLE POINT ENERGY      -340.437031345601
                    ***********************HURRAY************************

DIPOLE MOMENT
-------------
                                X             Y             Z
Electronic contribution:      6.96377      -0.83703       0.06281
Nuclear contribution   :     -6.78879       1.66103       0.86772
                        -----------------------------------------
Total Dipole Moment    :      0.17499       0.82400       0.93053
                        -----------------------------------------
Magnitude (a.u.)       :      1.25518
Magnitude (Debye)      :      3.19041

Rotational constants in cm-1:     0.188937     0.051582     0.040519
Rotational constants in MHz :  5664.196283  1546.379570  1214.743121

                             ****ORCA TERMINATED NORMALLY****
TOTAL RUN TIME: 0 days 7 hours 34 minutes 57 seconds 496 msec
