 Gaussian 09, Revision B.01,
 Gaussian 09:  EM64L-G09RevB.01 12-Aug-2010

 ---------------------------------------------------------
 # rb3lyp/aug-cc-pVDZ opt=(ts,noeigen,calcfc) freq=noraman
 ---------------------------------------------------------

 ----------------
 2-HOOC-4-Br-C6H2
 ----------------
 Symbolic Z-matrix:
 Charge =  0 Multiplicity = 1

 SCF Done:  E(RB3LYP) =  -3102.59954060     A.U. after   19 cycles
 SCF Done:  E(RB3LYP) =  -3102.59955986     A.U. after   18 cycles
 Optimization completed.
    -- Stationary point found.
 Normal termination of Gaussian 09 at Wed Dec 19 04:37:01 2018.

 ----------------------------------------------------------------------
 #N Geom=AllCheck Guess=TCheck SCRF=Check GenChk RB3LYP/Aug-CC-pVDZ Fre
 q
 ----------------------------------------------------------------------

 2-HOOC-4-Br-C6H2
 ----------------
 Redundant internal coordinates taken from checkpoint file:
 2-HOOC-4-Br-C6H2-TS.chk
 Charge =  0 Multiplicity = 1

                         Standard orientation:
 ---------------------------------------------------------------------
 Center     Atomic      Atomic             Coordinates (Angstroms)
 Number     Number       Type             X           Y           Z
 ---------------------------------------------------------------------
      1          6           0        0.815752   -1.670958    0.000008
      2          6           0       -0.559524   -2.010974    0.000005
      3          6           0       -1.355733   -0.944557    0.000004
      4          6           0       -1.110031    0.438619    0.000003
      5          6           0        0.258881    0.728163    0.000001
      6          6           0        1.191551   -0.323790    0.000003
      7          1           0        1.592217   -2.438613    0.000012
      8          1           0        0.576994    1.767616   -0.000001
      9          7           0       -2.928147   -1.390463   -0.000006
     10          7           0       -3.816797   -2.055894   -0.000012
     11         35           0        3.058331    0.137601   -0.000002
     12          6           0       -2.074209    1.571791    0.000002
     13          8           0       -1.761143    2.741190   -0.000007
     14          8           0       -3.373848    1.168265    0.000009
     15          1           0       -3.916384    1.974057    0.000006
 ---------------------------------------------------------------------

 SCF Done:  E(RB3LYP) =  -3102.59955986     A.U. after    3 cycles

 The electronic state is 1-A.
 Alpha  occ. eigenvalues -- -482.89238 -62.54339 -56.36044 -56.35702 -56.35687
 Alpha  occ. eigenvalues --  -19.23127 -19.17086 -14.52515 -14.50005 -10.35838
 Alpha  occ. eigenvalues --  -10.28647 -10.26832 -10.25517 -10.23324 -10.22734
 Alpha  occ. eigenvalues --  -10.18293  -8.72399  -6.55387  -6.54152  -6.54104
 Alpha  occ. eigenvalues --   -2.66426  -2.66076  -2.66042  -2.65058  -2.65058
 Alpha  occ. eigenvalues --   -1.18953  -1.14588  -1.05598  -0.91293  -0.84052
 Alpha  occ. eigenvalues --   -0.79814  -0.77253  -0.70815  -0.67258  -0.62410
 Alpha  occ. eigenvalues --   -0.60065  -0.54788  -0.53364  -0.53232  -0.52156
 Alpha  occ. eigenvalues --   -0.50757  -0.48729  -0.48300  -0.46886  -0.44016
 Alpha  occ. eigenvalues --   -0.41707  -0.41231  -0.38892  -0.36129  -0.33915
 Alpha  occ. eigenvalues --   -0.32103  -0.30285  -0.28497  -0.27115  -0.22890
 Alpha virt. eigenvalues --   -0.11280  -0.10719  -0.07672  -0.02839  -0.02091
 Alpha virt. eigenvalues --   -0.01849  -0.00185   0.01027   0.01751   0.02102
 Alpha virt. eigenvalues --    0.02202   0.03159   0.04198   0.04961   0.06184

 Mulliken atomic charges:
              1
     1  C    0.402321
     2  C   -1.616925
     3  C    0.999241
     4  C    2.001071
     5  C    0.614891
     6  C   -0.181293
     7  H   -0.714723
     8  H   -0.974365
     9  N    0.530873
    10  N   -0.772954
    11  Br   0.090456
    12  C    0.480176
    13  O   -0.535724
    14  O   -0.595910
    15  H    0.272866
 Sum of Mulliken atomic charges =   0.00000

 Dipole moment (field-independent basis, Debye):
    X=             -3.3292    Y=              0.4355    Z=              0.0000  Tot=              3.3575
 Quadrupole moment (field-independent basis, Debye-Ang):
   XX=            -66.7515   YY=            -89.8306   ZZ=            -80.7378
   XY=             -2.4626   XZ=              0.0000   YZ=              0.0001

  Exact polarizability: 207.973   6.779 141.318   0.000   0.000  71.663
 Approx polarizability: 350.219  10.613 249.478   0.000   0.000 115.920

 ******    1 imaginary frequencies (negative Signs) ******

                     1                      2                      3
                     A                      A                      A
 Frequencies --  -422.1777                44.8947                62.6200
 Red. masses --    12.9759                10.5142                10.2908
 Frc consts  --     1.3626                 0.0125                 0.0238
 IR Inten    --    32.8087                 0.6017                 1.9930

                     4                      5                      6
                     A                      A                      A
 Frequencies --   138.1484               138.9943               153.1183
 Red. masses --    13.0784                 5.5747                12.6195
 Frc consts  --     0.1471                 0.0635                 0.1743
 IR Inten    --     0.6438                 0.3677                 0.9085

                     7                      8                      9
                     A                      A                      A
 Frequencies --   168.0891               267.5279               304.1346
 Red. masses --     8.9418                12.3496                 8.7876
 Frc consts  --     0.1489                 0.5208                 0.4789
 IR Inten    --     0.3813                 5.1561                 1.4321

                    10                     11                     12
                     A                      A                      A
 Frequencies --   356.7147               370.2850               386.5417
 Red. masses --     9.2286                 8.9734                12.1509
 Frc consts  --     0.6919                 0.7249                 1.0697
 IR Inten    --     0.6718                 6.6549                 2.1703

                    13                     14                     15
                     A                      A                      A
 Frequencies --   425.4178               492.4926               574.0603
 Red. masses --     4.4088                 4.3900                 8.6345
 Frc consts  --     0.4701                 0.6274                 1.6765
 IR Inten    --     1.5811                 2.6334                 2.0174

                    16                     17                     18
                     A                      A                      A
 Frequencies --   592.4226               616.3186               646.6141
 Red. masses --     7.7457                 1.3376                 5.6479
 Frc consts  --     1.6017                 0.2994                 1.3913
 IR Inten    --     8.0857               100.1799                89.7914

                    19                     20                     21
                     A                      A                      A
 Frequencies --   676.6441               781.3835               782.6695
 Red. masses --     3.0381                 5.7326                 6.9892
 Frc consts  --     0.8196                 2.0622                 2.5225
 IR Inten    --     2.4121                33.4760                29.4710

                    22                     23                     24
                     A                      A                      A
 Frequencies --   908.6597               919.1463               935.2330
 Red. masses --     7.0852                 1.5300                 1.5081
 Frc consts  --     3.4467                 0.7616                 0.7772
 IR Inten    --    23.8548                 6.0170                 3.5597

                    25                     26                     27
                     A                      A                      A
 Frequencies --  1073.5667              1098.7727              1155.2883
 Red. masses --     6.8124                 2.1030                 2.8770
 Frc consts  --     4.6261                 1.4959                 2.2624
 IR Inten    --    18.8180                20.9233               295.4265

                    28                     29                     30
                     A                      A                      A
 Frequencies --  1241.9946              1333.3649              1356.0258
 Red. masses --     1.5058                 1.9069                 2.6177
 Frc consts  --     1.3685                 1.9974                 2.8360
 IR Inten    --    98.2451                55.9089                24.1699

                    31                     32                     33
                     A                      A                      A
 Frequencies --  1407.0445              1412.0486              1522.4322
 Red. masses --     5.1571                 4.9320                 6.0852
 Frc consts  --     6.0155                 5.7940                 8.3100
 IR Inten    --     6.8544               121.9123                54.1701

                    34                     35                     36
                     A                      A                      A
 Frequencies --  1641.3296              1786.1442              2311.1636
 Red. masses --     9.1927                 9.8332                13.9797
 Frc consts  --    14.5911                18.4833                43.9957
 IR Inten    --   130.1616               330.8840               204.1518

                    37                     38                     39
                     A                      A                      A
 Frequencies --  3163.1322              3231.8299              3739.5939
 Red. masses --     1.0906                 1.0920                 1.0645
 Frc consts  --     6.4293                 6.7198                 8.7707
 IR Inten    --    14.1812                 5.4810               115.4984

 - Thermochemistry -
 -------------------
 Temperature   298.150 Kelvin.  Pressure   1.00000 Atm.
 Atom     1 has atomic number  6 and mass  12.00000

 Molecular mass:   225.93779 amu.
 Principal axes and moments of inertia in atomic units:
                           1         2         3
     Eigenvalues --  1339.012335095.065416434.07774
           X            0.99991  -0.01365   0.00000
           Y            0.01365   0.99991   0.00000
           Z            0.00000   0.00000   1.00000
 This molecule is an asymmetric top.
 Rotational symmetry number  1.
 Warning -- assumption of classical behavior for rotation
           may cause significant error
 Rotational temperatures (Kelvin)      0.06468     0.01700     0.01346
 Rotational constants (GHZ):           1.34782     0.35421     0.28050
    1 imaginary frequencies ignored.
 Zero-point vibrational energy     228581.6 (Joules/Mol)
                                   54.63232 (Kcal/Mol)
 Warning -- explicit consideration of  16 degrees of freedom as
           vibrations may cause significant error
 Vibrational temperatures:     64.59    90.10   198.76   199.98   220.30
          (Kelvin)            241.84   384.91   437.58   513.23   532.76
                              556.15   612.08   708.59   825.94   852.36
                              886.74   930.33   973.54  1124.24  1126.09
                             1307.36  1322.44  1345.59  1544.62  1580.89
                             1662.20  1786.95  1918.41  1951.02  2024.42
                             2031.62  2190.44  2361.50  2569.86  3325.24
                             4551.04  4649.88  5380.43

 Zero-point correction=                           0.087062 (Hartree/Particle)
 Thermal correction to Energy=                    0.097729
 Thermal correction to Enthalpy=                  0.098674
 Thermal correction to Gibbs Free Energy=         0.048563
 Sum of electronic and zero-point Energies=          -3102.512498
 Sum of electronic and thermal Energies=             -3102.501831
 Sum of electronic and thermal Enthalpies=           -3102.500886
 Sum of electronic and thermal Free Energies=        -3102.550996

                     E (Thermal)             CV                S
                      KCal/Mol        Cal/Mol-Kelvin    Cal/Mol-Kelvin
 Total                   61.326             37.522            105.465
 Electronic               0.000              0.000              0.000
 Translational            0.889              2.981             42.148
 Rotational               0.889              2.981             32.151
 Vibrational             59.549             31.561             31.167
 Vibration     1          0.595              1.979              5.030
 Vibration     2          0.597              1.972              4.373
 Vibration     3          0.614              1.915              2.829
 Vibration     4          0.615              1.914              2.818
 Vibration     5          0.619              1.899              2.633
 Vibration     6          0.625              1.882              2.457
 Vibration     7          0.673              1.733              1.612
 Vibration     8          0.695              1.666              1.394
 Vibration     9          0.732              1.561              1.136
 Vibration    10          0.742              1.533              1.079
 Vibration    11          0.755              1.499              1.013
 Vibration    12          0.787              1.415              0.874
 Vibration    13          0.848              1.267              0.677
 Vibration    14          0.930              1.087              0.496
 Vibration    15          0.950              1.048              0.463
 Vibration    16          0.976              0.997              0.422

 Optimization completed.
    -- Stationary point found.
 Normal termination of Gaussian 09 at Wed Dec 19 04:52:52 2018.
