 Gaussian 09, Revision B.01,
 Gaussian 09:  EM64L-G09RevB.01 12-Aug-2010

 ---------------------------------------------------------
 # rb3lyp/aug-cc-pVDZ opt=(ts,noeigen,calcfc) freq=noraman
 ---------------------------------------------------------

 -----------
 2-HOOC-C6H3
 -----------
 Symbolic Z-matrix:
 Charge =  0 Multiplicity = 1

 SCF Done:  E(RB3LYP) =  -529.043568398     A.U. after   19 cycles
 SCF Done:  E(RB3LYP) =  -529.043571855     A.U. after   18 cycles
 Optimization completed.
    -- Stationary point found.
 Normal termination of Gaussian 09 at Wed Dec 19 05:07:04 2018.

 ----------------------------------------------------------------------
 #N Geom=AllCheck Guess=TCheck SCRF=Check GenChk RB3LYP/Aug-CC-pVDZ Fre
 q
 ----------------------------------------------------------------------

 2-HOOC-C6H3
 -----------
 Redundant internal coordinates taken from checkpoint file:
 2-HOOC-C6H3-TS.chk
 Charge =  0 Multiplicity = 1

                         Standard orientation:
 ---------------------------------------------------------------------
 Center     Atomic      Atomic             Coordinates (Angstroms)
 Number     Number       Type             X           Y           Z
 ---------------------------------------------------------------------
      1          6           0       -2.693409    0.244120    0.000002
      2          6           0       -1.701284    1.264134    0.000000
      3          6           0       -0.468817    0.748636    0.000000
      4          6           0        0.027485   -0.569270    0.000000
      5          6           0       -1.000973   -1.518984    0.000000
      6          6           0       -2.347176   -1.111146    0.000001
      7          1           0       -3.753939    0.512189    0.000004
      8          1           0       -0.728888   -2.573048    0.000000
      9          7           0        0.633721    1.925249   -0.000003
     10          7           0        1.070148    2.946448   -0.000004
     11          1           0       -3.127406   -1.875304    0.000001
     12          6           0        1.435014   -1.040787    0.000000
     13          8           0        1.776236   -2.203649   -0.000008
     14          8           0        2.343313   -0.024739    0.000010
     15          1           0        3.221715   -0.438824    0.000009
 ---------------------------------------------------------------------

 SCF Done:  E(RB3LYP) =  -529.043571856     A.U. after    2 cycles

 The electronic state is 1-A.
 Alpha  occ. eigenvalues --  -19.22344 -19.16261 -14.52014 -14.49321 -10.34974
 Alpha  occ. eigenvalues --  -10.27731 -10.24218 -10.21976 -10.21375 -10.21283
 Alpha  occ. eigenvalues --  -10.16991  -1.18336  -1.13764  -1.04725  -0.89667
 Alpha  occ. eigenvalues --   -0.80206  -0.78564  -0.69922  -0.67778  -0.60989
 Alpha  occ. eigenvalues --   -0.59158  -0.54555  -0.52810  -0.52707  -0.51382
 Alpha  occ. eigenvalues --   -0.50031  -0.47880  -0.47783  -0.45626  -0.43166
 Alpha  occ. eigenvalues --   -0.40553  -0.39329  -0.37863  -0.35270  -0.31274
 Alpha  occ. eigenvalues --   -0.28877  -0.27232  -0.21639
 Alpha virt. eigenvalues --   -0.10604  -0.09871  -0.06692  -0.02155  -0.00825
 Alpha virt. eigenvalues --   -0.00353   0.01477   0.02015   0.02750   0.02811
 Alpha virt. eigenvalues --    0.03508   0.03594   0.05463   0.06493   0.06739

 Mulliken atomic charges:
              1
     1  C    0.449062
     2  C   -1.405705
     3  C    0.978816
     4  C    1.943414
     5  C    0.516165
     6  C    0.544322
     7  H   -0.680265
     8  H   -0.986173
     9  N    0.533324
    10  N   -0.786024
    11  H   -0.756344
    12  C    0.502024
    13  O   -0.533694
    14  O   -0.585214
    15  H    0.266292
 Sum of Mulliken atomic charges =   0.00000

 Dipole moment (field-independent basis, Debye):
    X=              1.6694    Y=              0.0232    Z=              0.0000  Tot=              1.6696
 Quadrupole moment (field-independent basis, Debye-Ang):
   XX=            -55.5915   YY=            -68.8585   ZZ=            -63.2488
   XY=             10.1896   XZ=              0.0000   YZ=             -0.0001

  Exact polarizability: 149.128   7.915 131.506   0.000   0.000  59.135
 Approx polarizability: 267.881  21.530 229.221   0.000   0.000  93.249

 ******    1 imaginary frequencies (negative Signs) ******

                     1                      2                      3
                     A                      A                      A
 Frequencies --  -422.4675                44.9235                98.2298
 Red. masses --    12.8036                10.4817                 6.2407
 Frc consts  --     1.3464                 0.0125                 0.0355
 IR Inten    --    32.3344                 0.5705                 5.1483

                     4                      5                      6
                     A                      A                      A
 Frequencies --   149.2881               161.2469               234.9688
 Red. masses --     6.3658                11.1508                 7.1658
 Frc consts  --     0.0836                 0.1708                 0.2331
 IR Inten    --     0.1683                 0.4187                 6.6479

                     7                      8                      9
                     A                      A                      A
 Frequencies --   283.4861               370.2472               387.5470
 Red. masses --     6.0592                 8.3482                13.1025
 Frc consts  --     0.2869                 0.6743                 1.1595
 IR Inten    --     1.7586                 7.8155                 1.3639

                    10                     11                     12
                     A                      A                      A
 Frequencies --   417.9474               483.7134               556.2057
 Red. masses --     4.5486                 4.1950                 7.9609
 Frc consts  --     0.4681                 0.5783                 1.4511
 IR Inten    --     2.9627                 2.0507                 3.4671

                    13                     14                     15
                     A                      A                      A
 Frequencies --   584.3012               603.1933               620.7491
 Red. masses --     8.3289                 1.3058                 5.7529
 Frc consts  --     1.6754                 0.2799                 1.3061
 IR Inten    --     4.8229                81.4467                20.2690

                    16                     17                     18
                     A                      A                      A
 Frequencies --   678.6785               748.4548               760.3763
 Red. masses --     3.2430                 5.4056                 2.2675
 Frc consts  --     0.8801                 1.7841                 0.7724
 IR Inten    --     8.6296                43.6937                65.9885

                    19                     20                     21
                     A                      A                      A
 Frequencies --   834.7990               914.5949               948.1434
 Red. masses --     1.9244                 6.4497                 1.4256
 Frc consts  --     0.7901                 3.1787                 0.7551
 IR Inten    --     3.7189                 2.2659                 0.6974

                    22                     23                     24
                     A                      A                      A
 Frequencies --  1011.9757              1036.8680              1085.5229
 Red. masses --     1.4436                 4.9048                 1.8456
 Frc consts  --     0.8710                 3.1069                 1.2813
 IR Inten    --     0.0851                13.1113                12.9899

                    25                     26                     27
                     A                      A                      A
 Frequencies --  1125.7712              1189.4901              1243.1958
 Red. masses --     2.7346                 1.4001                 1.6331
 Frc consts  --     2.0419                 1.1672                 1.4871
 IR Inten    --   198.1158                75.0660                61.1794

                    28                     29                     30
                     A                      A                      A
 Frequencies --  1350.3956              1360.7747              1401.4001
 Red. masses --     2.1694                 2.3831                 5.3558
 Frc consts  --     2.3309                 2.6000                 6.1973
 IR Inten    --   109.1658                23.3474                 7.5801

                    31                     32                     33
                     A                      A                      A
 Frequencies --  1464.6139              1549.4782              1631.9648
 Red. masses --     2.8703                 4.8497                 8.2644
 Frc consts  --     3.6276                 6.8602                12.9683
 IR Inten    --    22.7362                 1.5991               164.1862

                    34                     35                     36
                     A                      A                      A
 Frequencies --  1781.2375              2307.7058              3137.5468
 Red. masses --     9.6531                13.9755                 1.0875
 Frc consts  --    18.0452                43.8508                 6.3074
 IR Inten    --   371.7302               175.0493                25.0922

                    37                     38                     39
                     A                      A                      A
 Frequencies --  3170.2056              3214.3858              3743.5115
 Red. masses --     1.0925                 1.0927                 1.0645
 Frc consts  --     6.4693                 6.6521                 8.7890
 IR Inten    --    31.3588                 1.1357               107.2568

 - Thermochemistry -
 -------------------
 Temperature   298.150 Kelvin.  Pressure   1.00000 Atm.
 Atom     1 has atomic number  6 and mass  12.00000

 Molecular mass:   148.02728 amu.
 Principal axes and moments of inertia in atomic units:
                           1         2         3
     Eigenvalues --  1240.738161508.515002749.25317
           X            0.99822   0.05963   0.00000
           Y           -0.05963   0.99822   0.00000
           Z            0.00000   0.00000   1.00000
 This molecule is an asymmetric top.
 Rotational symmetry number  1.
 Warning -- assumption of classical behavior for rotation
           may cause significant error
 Rotational temperatures (Kelvin)      0.06981     0.05742     0.03150
 Rotational constants (GHZ):           1.45457     1.19637     0.65645
    1 imaginary frequencies ignored.
 Zero-point vibrational energy     255325.8 (Joules/Mol)
                                   61.02433 (Kcal/Mol)
 Warning -- explicit consideration of  14 degrees of freedom as
           vibrations may cause significant error
 Vibrational temperatures:     64.63   141.33   214.79   232.00   338.07
          (Kelvin)            407.87   532.70   557.59   601.33   695.95
                              800.26   840.68   867.86   893.12   976.47
                             1076.86  1094.01  1201.09  1315.90  1364.17
                             1456.01  1491.82  1561.82  1619.73  1711.41
                             1788.68  1942.92  1957.85  2016.30  2107.25
                             2229.35  2348.03  2562.80  3320.27  4514.22
                             4561.21  4624.78  5386.07

 Zero-point correction=                           0.097248 (Hartree/Particle)
 Thermal correction to Energy=                    0.106393
 Thermal correction to Enthalpy=                  0.107337
 Thermal correction to Gibbs Free Energy=         0.062070
 Sum of electronic and zero-point Energies=           -528.946323
 Sum of electronic and thermal Energies=              -528.937179
 Sum of electronic and thermal Enthalpies=            -528.936235
 Sum of electronic and thermal Free Energies=         -528.981502

                     E (Thermal)             CV                S
                      KCal/Mol        Cal/Mol-Kelvin    Cal/Mol-Kelvin
 Total                   66.762             33.191             95.273
 Electronic               0.000              0.000              0.000
 Translational            0.889              2.981             40.887
 Rotational               0.889              2.981             30.021
 Vibrational             64.985             27.229             24.364
 Vibration     1          0.595              1.979              5.029
 Vibration     2          0.604              1.950              3.489
 Vibration     3          0.618              1.903              2.681
 Vibration     4          0.622              1.890              2.535
 Vibration     5          0.655              1.787              1.841
 Vibration     6          0.682              1.704              1.513
 Vibration     7          0.742              1.533              1.079
 Vibration     8          0.756              1.497              1.010
 Vibration     9          0.781              1.431              0.899
 Vibration    10          0.840              1.286              0.700
 Vibration    11          0.912              1.126              0.531
 Vibration    12          0.941              1.065              0.477
 Vibration    13          0.962              1.025              0.444
 Vibration    14          0.981              0.988              0.415

 Optimization completed.
    -- Stationary point found.
 Normal termination of Gaussian 09 at Wed Dec 19 05:18:32 2018.
