 Gaussian 09, Revision B.01,
 Gaussian 09:  EM64L-G09RevB.01 12-Aug-2010

 ---------------------------------------------------------
 # rb3lyp/aug-cc-pVDZ opt=(ts,noeigen,calcfc) freq=noraman
 ---------------------------------------------------------

 ----------------
 3-NO2-C6H3-N2-v1
 ----------------
 Symbolic Z-matrix:
 Charge =  0 Multiplicity = 1

 SCF Done:  E(RB3LYP) =  -544.974245091     A.U. after   19 cycles
 SCF Done:  E(RB3LYP) =  -544.974270212     A.U. after   13 cycles
 Optimization completed.
    -- Stationary point found.
 Normal termination of Gaussian 09 at Wed Dec 19 09:02:36 2018.

 ----------------------------------------------------------------------
 #N Geom=AllCheck Guess=TCheck SCRF=Check GenChk RB3LYP/Aug-CC-pVDZ Fre
 q
 ----------------------------------------------------------------------

 3-NO2-C6H3-N2-v1
 ----------------
 Redundant internal coordinates taken from checkpoint file:
 3-NO2-C6H3-N2-v1-TS.chk
 Charge =  0 Multiplicity = 1

                         Standard orientation:
 ---------------------------------------------------------------------
 Center     Atomic      Atomic             Coordinates (Angstroms)
 Number     Number       Type             X           Y           Z
 ---------------------------------------------------------------------
      1          6           0        0.468110    2.127893    0.000001
      2          6           0        1.681196    1.383077   -0.000002
      3          6           0        1.429264    0.064891   -0.000003
      4          6           0        0.269808   -0.702387   -0.000001
      5          6           0       -0.869137    0.097442    0.000001
      6          6           0       -0.782541    1.505129    0.000003
      7          1           0        0.497119    3.220369    0.000003
      8          1           0        0.217084   -1.788876   -0.000004
      9          7           0        2.768018   -0.815812   -0.000004
     10          7           0        3.841233   -1.105040    0.000004
     11          1           0       -1.706032    2.082101    0.000005
     12          7           0       -2.186198   -0.557862    0.000001
     13          8           0       -3.181861    0.160483   -0.000003
     14          8           0       -2.211856   -1.787841    0.000002
 ---------------------------------------------------------------------

 SCF Done:  E(RB3LYP) =  -544.974270212     A.U. after    2 cycles

 The electronic state is 1-A.
 Alpha  occ. eigenvalues --  -19.19725 -19.19622 -14.58572 -14.54118 -14.51698
 Alpha  occ. eigenvalues --  -10.29284 -10.27284 -10.25526 -10.23354 -10.22514
 Alpha  occ. eigenvalues --  -10.19053  -1.24702  -1.20483  -1.07419  -0.92149
 Alpha  occ. eigenvalues --   -0.84298  -0.80184  -0.73433  -0.70124  -0.63252
 Alpha  occ. eigenvalues --   -0.59265  -0.56370  -0.55227  -0.55137  -0.54809
 Alpha  occ. eigenvalues --   -0.52978  -0.51774  -0.50322  -0.47672  -0.45850
 Alpha  occ. eigenvalues --   -0.41337  -0.39429  -0.33245  -0.33015  -0.31276
 Alpha  occ. eigenvalues --   -0.30697  -0.29035  -0.23345
 Alpha virt. eigenvalues --   -0.12291  -0.11839  -0.11017  -0.04093  -0.02087
 Alpha virt. eigenvalues --   -0.00523   0.00176   0.00977   0.02219   0.03202
 Alpha virt. eigenvalues --    0.03428   0.04111   0.05306   0.06370   0.06455

 Mulliken atomic charges:
              1
     1  C    0.549036
     2  C   -1.342715
     3  C    0.843994
     4  C    1.105153
     5  C    0.851614
     6  C    1.055229
     7  H   -0.644695
     8  H   -0.760854
     9  N    0.492780
    10  N   -0.671436
    11  H   -0.808664
    12  N    0.691185
    13  O   -0.682528
    14  O   -0.678101
 Sum of Mulliken atomic charges =   0.00000

 Dipole moment (field-independent basis, Debye):
    X=              3.4156    Y=             -1.0193    Z=              0.0000  Tot=              3.5644
 Quadrupole moment (field-independent basis, Debye-Ang):
   XX=            -71.8368   YY=            -61.9223   ZZ=            -61.6951
   XY=            -12.2955   XZ=              0.0000   YZ=              0.0000

  Exact polarizability: 157.056  -9.753 123.655   0.000   0.000  56.220
 Approx polarizability: 257.696 -38.574 252.614   0.000   0.000  88.594

 ******    1 imaginary frequencies (negative Signs) ******

                     1                      2                      3
                     A                      A                      A
 Frequencies --  -420.5440                53.7453               101.7188
 Red. masses --    12.8162                14.0279                 7.1985
 Frc consts  --     1.3355                 0.0239                 0.0439
 IR Inten    --    45.4617                 0.0404                 0.1524

                     4                      5                      6
                     A                      A                      A
 Frequencies --   138.7148               176.2426               258.8802
 Red. masses --    12.2374                 8.3300                 8.3025
 Frc consts  --     0.1387                 0.1524                 0.3278
 IR Inten    --     0.1007                12.1854                 7.1696

                     7                      8                      9
                     A                      A                      A
 Frequencies --   295.1977               363.9917               413.9413
 Red. masses --     5.3393                11.7429                 3.4017
 Frc consts  --     0.2741                 0.9167                 0.3434
 IR Inten    --     0.2138                 1.8139                 9.0100

                    10                     11                     12
                     A                      A                      A
 Frequencies --   434.0801               482.4623               544.6607
 Red. masses --    10.1775                 7.8696                 6.8073
 Frc consts  --     1.1299                 1.0793                 1.1898
 IR Inten    --     1.8282                 0.1672                 5.0588

                    13                     14                     15
                     A                      A                      A
 Frequencies --   611.8305               646.9288               647.5931
 Red. masses --     8.2458                 9.7730                 3.8334
 Frc consts  --     1.8186                 2.4099                 0.9472
 IR Inten    --     9.6482                24.0263                 0.0236

                    16                     17                     18
                     A                      A                      A
 Frequencies --   755.5617               840.5589               867.2636
 Red. masses --     4.2409                12.5940                 1.3587
 Frc consts  --     1.4264                 5.2426                 0.6021
 IR Inten    --    25.1605                31.6573                 5.6047

                    19                     20                     21
                     A                      A                      A
 Frequencies --   887.3243               958.0591               976.9350
 Red. masses --     1.6413                 5.1957                 3.1171
 Frc consts  --     0.7614                 2.8098                 1.7528
 IR Inten    --     9.9240                27.4684                 2.3507

                    22                     23                     24
                     A                      A                      A
 Frequencies --  1006.4548              1101.3083              1127.4060
 Red. masses --     1.4039                 2.7137                 1.4196
 Frc consts  --     0.8379                 1.9393                 1.0631
 IR Inten    --     0.2739                39.0369                 8.1252

                    25                     26                     27
                     A                      A                      A
 Frequencies --  1252.0595              1337.4358              1378.8631
 Red. masses --     1.5997                 3.3582                13.5435
 Frc consts  --     1.4776                 3.5391                15.1713
 IR Inten    --     0.1878                27.1665               354.5997

                    28                     29                     30
                     A                      A                      A
 Frequencies --  1383.3380              1465.2297              1555.2744
 Red. masses --     2.6421                 3.1334                 6.6954
 Frc consts  --     2.9789                 3.9635                 9.5420
 IR Inten    --     0.3917                 1.5327                28.4504

                    31                     32                     33
                     A                      A                      A
 Frequencies --  1592.9493              1628.1103              2300.1376
 Red. masses --    10.3989                10.7556                13.9402
 Frc consts  --    15.5469                16.7978                43.4537
 IR Inten    --   274.1270                33.7412               217.4121

                    34                     35                     36
                     A                      A                      A
 Frequencies --  3151.5903              3214.2581              3221.3821
 Red. masses --     1.0890                 1.0924                 1.0947
 Frc consts  --     6.3731                 6.6499                 6.6933
 IR Inten    --    28.6905                 1.0629                 2.5007

 - Thermochemistry -
 -------------------
 Temperature   298.150 Kelvin.  Pressure   1.00000 Atm.
 Atom     1 has atomic number  6 and mass  12.00000

 Molecular mass:   149.02253 amu.
 Principal axes and moments of inertia in atomic units:
                           1         2         3
     Eigenvalues --   752.880222509.040943261.92116
           X            0.99999  -0.00470   0.00000
           Y            0.00470   0.99999   0.00000
           Z            0.00000   0.00000   1.00000
 This molecule is an asymmetric top.
 Rotational symmetry number  1.
 Warning -- assumption of classical behavior for rotation
           may cause significant error
 Rotational temperatures (Kelvin)      0.11504     0.03452     0.02655
 Rotational constants (GHZ):           2.39712     0.71930     0.55328
    1 imaginary frequencies ignored.
 Zero-point vibrational energy     222334.9 (Joules/Mol)
                                   53.13931 (Kcal/Mol)
 Warning -- explicit consideration of  12 degrees of freedom as
           vibrations may cause significant error
 Vibrational temperatures:     77.33   146.35   199.58   253.57   372.47
          (Kelvin)            424.72   523.70   595.57   624.54   694.15
                              783.64   880.29   930.79   931.74  1087.08
                             1209.38  1247.80  1276.66  1378.43  1405.59
                             1448.06  1584.54  1622.08  1801.43  1924.27
                             1983.87  1990.31  2108.14  2237.69  2291.90
                             2342.48  3309.38  4534.43  4624.59  4634.84

 Zero-point correction=                           0.084683 (Hartree/Particle)
 Thermal correction to Energy=                    0.093511
 Thermal correction to Enthalpy=                  0.094455
 Thermal correction to Gibbs Free Energy=         0.049748
 Sum of electronic and zero-point Energies=           -544.889587
 Sum of electronic and thermal Energies=              -544.880759
 Sum of electronic and thermal Enthalpies=            -544.879815
 Sum of electronic and thermal Free Energies=         -544.924522

                     E (Thermal)             CV                S
                      KCal/Mol        Cal/Mol-Kelvin    Cal/Mol-Kelvin
 Total                   58.679             31.692             94.093
 Electronic               0.000              0.000              0.000
 Translational            0.889              2.981             40.907
 Rotational               0.889              2.981             30.200
 Vibrational             56.902             25.730             22.986
 Vibration     1          0.596              1.976              4.675
 Vibration     2          0.604              1.948              3.421
 Vibration     3          0.614              1.915              2.822
 Vibration     4          0.628              1.872              2.368
 Vibration     5          0.668              1.748              1.669
 Vibration     6          0.689              1.683              1.444
 Vibration     7          0.738              1.546              1.105
 Vibration     8          0.778              1.440              0.913
 Vibration     9          0.795              1.396              0.845
 Vibration    10          0.839              1.289              0.703
 Vibration    11          0.900              1.151              0.555
 Vibration    12          0.971              1.007              0.430

 Optimization completed.
    -- Stationary point found.
 Normal termination of Gaussian 09 at Wed Dec 19 09:12:35 2018.
