 Gaussian 09, Revision B.01,
 Gaussian 09:  EM64L-G09RevB.01 12-Aug-2010

 ---------------------------------------------------------
 # rb3lyp/aug-cc-pVDZ opt=(ts,noeigen,calcfc) freq=noraman
 ---------------------------------------------------------

 ---------
 4-Br-C6H3
 ---------
 Symbolic Z-matrix:
 Charge =  0 Multiplicity = 1

 SCF Done:  E(RB3LYP) =  -2913.99475267     A.U. after   18 cycles
 SCF Done:  E(RB3LYP) =  -2913.99478593     A.U. after   18 cycles
 SCF Done:  E(RB3LYP) =  -2913.99478598     A.U. after   19 cycles
 Optimization completed.
    -- Stationary point found.
 Normal termination of Gaussian 09 at Wed Dec 19 05:51:14 2018.

 ----------------------------------------------------------------------
 #N Geom=AllCheck Guess=TCheck SCRF=Check GenChk RB3LYP/Aug-CC-pVDZ Fre
 q
 ----------------------------------------------------------------------

 4-Br-C6H3
 ---------
 Redundant internal coordinates taken from checkpoint file:
 4-Br-C6H3-TS.chk
 Charge =  0 Multiplicity = 1

                         Standard orientation:
 ---------------------------------------------------------------------
 Center     Atomic      Atomic             Coordinates (Angstroms)
 Number     Number       Type             X           Y           Z
 ---------------------------------------------------------------------
      1          6           0       -1.228058   -0.098728    0.000000
      2          6           0       -1.251465   -1.515339    0.000000
      3          6           0       -0.019608   -2.032539    0.000000
      4          6           0        1.261007   -1.482243    0.000000
      5          6           0        1.247210   -0.090767    0.000000
      6          6           0        0.000000    0.571557    0.000000
      7          1           0       -2.150375    0.485780    0.000000
      8          1           0        2.183916   -2.063319    0.000000
      9          1           0        2.175335    0.476177    0.000000
     10          7           0       -0.022999   -3.648981    0.000000
     11          7           0       -0.393830   -4.698212    0.000000
     12         35           0        0.018697    2.497716    0.000000
 ---------------------------------------------------------------------

 SCF Done:  E(RB3LYP) =  -2913.99478781     A.U. after    6 cycles

 The electronic state is 1-A'.
 Alpha  occ. eigenvalues -- -482.88596 -62.53704 -56.35403 -56.35069 -56.35054
 Alpha  occ. eigenvalues --  -14.52478 -14.50021 -10.27401 -10.26069 -10.23575
 Alpha  occ. eigenvalues --  -10.22207 -10.21361 -10.17581  -8.71768  -6.54740
 Alpha  occ. eigenvalues --   -6.53530  -6.53483  -2.65782  -2.65441  -2.65407
 Alpha  occ. eigenvalues --   -2.64442  -2.64441  -1.18811  -0.90081  -0.83150
 Alpha  occ. eigenvalues --   -0.77686  -0.76421  -0.67184  -0.63759  -0.57801
 Alpha  occ. eigenvalues --   -0.53652  -0.53228  -0.52191  -0.48742  -0.47392
 Alpha  occ. eigenvalues --   -0.45362  -0.41034  -0.40517  -0.37638  -0.33155
 Alpha  occ. eigenvalues --   -0.29700  -0.27406  -0.26283  -0.22097
 Alpha virt. eigenvalues --   -0.11040  -0.10300  -0.03763  -0.02372  -0.01404
 Alpha virt. eigenvalues --   -0.00989   0.00624   0.01271   0.02767   0.03591
 Alpha virt. eigenvalues --    0.04252   0.04561   0.05752   0.06608   0.07243

 Mulliken atomic charges:
              1
     1  C    0.557188
     2  C   -1.501282
     3  C    0.906323
     4  C    1.016501
     5  C    0.939681
     6  C    0.405020
     7  H   -0.649731
     8  H   -0.769468
     9  H   -0.761986
    10  N    0.443974
    11  N   -0.685092
    12  Br   0.098872
 Sum of Mulliken atomic charges =   0.00000

 Dipole moment (field-independent basis, Debye):
    X=              2.9521    Y=             -2.6239    Z=              0.0000  Tot=              3.9496
 Quadrupole moment (field-independent basis, Debye-Ang):
   XX=            -63.9224   YY=            -56.5882   ZZ=            -65.9846
   XY=             -6.5491   XZ=              0.0000   YZ=              0.0000

  Exact polarizability: 105.140   0.617 194.060  -0.002   0.011  63.679
 Approx polarizability: 196.790 -12.720 331.868   0.000   0.000 101.127

 ******    1 imaginary frequencies (negative Signs) ******

                     1                      2                      3
                    A'                     A"                     A'
 Frequencies --  -444.4615                63.4988               143.4576
 Red. masses --    12.8180                11.6164                11.9351
 Frc consts  --     1.4919                 0.0276                 0.1447
 IR Inten    --    37.9852                 0.5435                 1.5788

                     4                      5                      6
                    A"                     A'                     A'
 Frequencies --   163.1418               258.8554               288.4746
 Red. masses --     8.7727                 7.6184                12.2199
 Frc consts  --     0.1376                 0.3008                 0.5991
 IR Inten    --     0.1648                 8.3773                 2.5780

                     7                      8                      9
                    A"                     A"                     A'
 Frequencies --   355.1636               410.1884               440.7308
 Red. masses --     5.6168                 3.7693                 7.7970
 Frc consts  --     0.4174                 0.3737                 0.8923
 IR Inten    --     1.3400                 7.7773                 0.6221

                    10                     11                     12
                    A"                     A'                     A'
 Frequencies --   464.7883               569.7635               646.4217
 Red. masses --     4.7381                 8.5197                 8.9395
 Frc consts  --     0.6031                 1.6295                 2.2009
 IR Inten    --     0.5087                19.5021                16.1014

                    13                     14                     15
                    A"                     A"                     A'
 Frequencies --   686.1237               787.9986               904.3193
 Red. masses --     3.7002                 1.4326                 7.1805
 Frc consts  --     1.0263                 0.5241                 3.4598
 IR Inten    --     8.0422                28.0957                25.1376

                    16                     17                     18
                    A"                     A"                     A'
 Frequencies --   914.4603               947.0510               975.8465
 Red. masses --     1.3927                 1.3460                 4.5823
 Frc consts  --     0.6862                 0.7113                 2.5709
 IR Inten    --     2.6976                 0.7240                38.5250

                    19                     20                     21
                    A'                     A'                     A'
 Frequencies --  1054.9908              1136.3013              1258.8103
 Red. masses --     2.6612                 1.2496                 1.7213
 Frc consts  --     1.7451                 0.9506                 1.6070
 IR Inten    --    74.9369                 2.5948                 0.2484

                    22                     23                     24
                    A'                     A'                     A'
 Frequencies --  1348.5210              1370.5551              1425.2166
 Red. masses --     2.2299                 4.2988                 2.3336
 Frc consts  --     2.3892                 4.7576                 2.7927
 IR Inten    --    19.0724                 1.3348                68.1411

                    25                     26                     27
                    A'                     A'                     A'
 Frequencies --  1535.1003              1625.8060              2283.5393
 Red. masses --     5.6441                 8.7486                13.9314
 Frc consts  --     7.8364                13.6247                42.8018
 IR Inten    --    89.2975                45.6126               344.6307

                    28                     29                     30
                    A'                     A'                     A'
 Frequencies --  3162.0519              3181.1798              3222.8904
 Red. masses --     1.0902                 1.0929                 1.0942
 Frc consts  --     6.4222                 6.5164                 6.6962
 IR Inten    --    17.9430                 6.3952                 0.4874

 - Thermochemistry -
 -------------------
 Temperature   298.150 Kelvin.  Pressure   1.00000 Atm.
 Atom     1 has atomic number  6 and mass  12.00000

 Molecular mass:   181.94796 amu.
 Principal axes and moments of inertia in atomic units:
                           1         2         3
     Eigenvalues --   322.538953921.100674243.63962
           X            0.02718   0.99963   0.00000
           Y            0.99963  -0.02718   0.00000
           Z            0.00000   0.00000   1.00000
 This molecule is an asymmetric top.
 Rotational symmetry number  1.
 Rotational temperatures (Kelvin)      0.26854     0.02209     0.02041
 Rotational constants (GHZ):           5.59542     0.46026     0.42528
    1 imaginary frequencies ignored.
 Zero-point vibrational energy     189161.0 (Joules/Mol)
                                   45.21056 (Kcal/Mol)
 Warning -- explicit consideration of  10 degrees of freedom as
           vibrations may cause significant error
 Vibrational temperatures:     91.36   206.40   234.72   372.43   415.05
          (Kelvin)            511.00   590.17   634.11   668.73   819.76
                              930.06   987.18  1133.75  1301.11  1315.70
                             1362.59  1404.02  1517.89  1634.88  1811.14
                             1940.22  1971.92  2050.57  2208.66  2339.17
                             3285.50  4549.48  4577.00  4637.01

 Zero-point correction=                           0.072048 (Hartree/Particle)
 Thermal correction to Energy=                    0.079850
 Thermal correction to Enthalpy=                  0.080794
 Thermal correction to Gibbs Free Energy=         0.037972
 Sum of electronic and zero-point Energies=          -2913.922740
 Sum of electronic and thermal Energies=             -2913.914938
 Sum of electronic and thermal Enthalpies=           -2913.913994
 Sum of electronic and thermal Free Energies=        -2913.956815

                     E (Thermal)             CV                S
                      KCal/Mol        Cal/Mol-Kelvin    Cal/Mol-Kelvin
 Total                   50.107             27.472             90.126
 Electronic               0.000              0.000              0.000
 Translational            0.889              2.981             41.502
 Rotational               0.889              2.981             30.063
 Vibrational             48.329             21.510             18.560
 Vibration     1          0.597              1.972              4.345
 Vibration     2          0.616              1.910              2.757
 Vibration     3          0.623              1.888              2.513
 Vibration     4          0.668              1.748              1.669
 Vibration     5          0.685              1.695              1.483
 Vibration     6          0.731              1.565              1.143
 Vibration     7          0.774              1.448              0.926
 Vibration     8          0.801              1.381              0.824
 Vibration     9          0.822              1.328              0.752
 Vibration    10          0.926              1.097              0.505

 Optimization completed.
    -- Stationary point found.
 Normal termination of Gaussian 09 at Wed Dec 19 05:56:58 2018.
