 Gaussian 09, Revision B.01,
 Gaussian 09:  EM64L-G09RevB.01 12-Aug-2010

 ---------------------------------------------------------
 # rb3lyp/aug-cc-pVDZ opt=(ts,noeigen,calcfc) freq=noraman
 ---------------------------------------------------------

 -----------
 4-HOOC-C6H3
 -----------
 Symbolic Z-matrix:
 Charge =  0 Multiplicity = 1

 SCF Done:  E(RB3LYP) =  -529.043794139     A.U. after   19 cycles
 SCF Done:  E(RB3LYP) =  -529.043817907     A.U. after   18 cycles
 SCF Done:  E(RB3LYP) =  -529.043817946     A.U. after   10 cycles
 Optimization completed.
    -- Stationary point found.
 Normal termination of Gaussian 09 at Wed Dec 19 06:38:19 2018.

 ----------------------------------------------------------------------
 #N Geom=AllCheck Guess=TCheck SCRF=Check GenChk RB3LYP/Aug-CC-pVDZ Fre
 q
 ----------------------------------------------------------------------

 4-HOOC-C6H3
 -----------
 Redundant internal coordinates taken from checkpoint file:
 4-HOOC-C6H3-TS.chk
 Charge =  0 Multiplicity = 1

                         Standard orientation:
 ---------------------------------------------------------------------
 Center     Atomic      Atomic             Coordinates (Angstroms)
 Number     Number       Type             X           Y           Z
 ---------------------------------------------------------------------
      1          6           0        0.208220   -1.243391    0.000000
      2          6           0       -1.214161   -1.235677    0.000000
      3          6           0       -1.672940    0.026027    0.000000
      4          6           0       -1.064146    1.284512    0.000000
      5          6           0        0.322405    1.215877    0.000000
      6          6           0        0.955979   -0.053804    0.000000
      7          1           0        0.760254   -2.184855    0.000001
      8          1           0       -1.610223    2.228050    0.000001
      9          1           0        0.917736    2.125269    0.000000
     10          7           0       -3.257673    0.079926    0.000000
     11          7           0       -4.331152   -0.212060   -0.000001
     12          6           0        2.447269   -0.158246    0.000000
     13          8           0        3.074314   -1.196066    0.000000
     14          8           0        3.067835    1.055132   -0.000001
     15          1           0        4.021054    0.872148   -0.000001
 ---------------------------------------------------------------------

 SCF Done:  E(RB3LYP) =  -529.043817946     A.U. after    2 cycles

 The electronic state is 1-A.
 Alpha  occ. eigenvalues --  -19.20603 -19.14844 -14.53107 -14.50497 -10.33193
 Alpha  occ. eigenvalues --  -10.27786 -10.23255 -10.22509 -10.21974 -10.21119
 Alpha  occ. eigenvalues --  -10.17151  -1.19350  -1.12105  -1.03119  -0.89800
 Alpha  occ. eigenvalues --   -0.81808  -0.77101  -0.72101  -0.64003  -0.63392
 Alpha  occ. eigenvalues --   -0.57673  -0.54544  -0.53804  -0.52611  -0.51757
 Alpha  occ. eigenvalues --   -0.49889  -0.46813  -0.46332  -0.46021  -0.42315
 Alpha  occ. eigenvalues --   -0.41785  -0.39369  -0.37787  -0.33806  -0.29486
 Alpha  occ. eigenvalues --   -0.29014  -0.27094  -0.21619
 Alpha virt. eigenvalues --   -0.11286  -0.11022  -0.04881  -0.03268  -0.02030
 Alpha virt. eigenvalues --   -0.00844   0.01311   0.02137   0.03185   0.03255
 Alpha virt. eigenvalues --    0.03688   0.04657   0.05638   0.05854   0.05891

 Mulliken atomic charges:
              1
     1  C    0.490247
     2  C   -1.774133
     3  C    0.849974
     4  C    0.822689
     5  C    1.230835
     6  C    1.730799
     7  H   -0.892973
     8  H   -0.797319
     9  H   -0.941494
    10  N    0.483730
    11  N   -0.736913
    12  C    0.399080
    13  O   -0.543328
    14  O   -0.585943
    15  H    0.264749
 Sum of Mulliken atomic charges =   0.00000

 Dipole moment (field-independent basis, Debye):
    X=             -2.1465    Y=              4.4887    Z=              0.0000  Tot=              4.9755
 Quadrupole moment (field-independent basis, Debye-Ang):
   XX=            -52.5856   YY=            -66.2882   ZZ=            -63.2976
   XY=              0.2771   XZ=              0.0000   YZ=              0.0000

  Exact polarizability: 177.890  -3.416 110.007   0.000   0.000  59.453
 Approx polarizability: 292.086 -24.686 208.939   0.000   0.000  93.511

 ******    1 imaginary frequencies (negative Signs) ******

                     1                      2                      3
                     A                      A                      A
 Frequencies --  -426.6496                54.4833                66.7681
 Red. masses --    12.8197                 7.5091                10.1019
 Frc consts  --     1.3749                 0.0131                 0.0265
 IR Inten    --    32.2160                 0.0021                 0.6820

                     4                      5                      6
                     A                      A                      A
 Frequencies --   142.9139               166.7442               236.3588
 Red. masses --    10.4462                 7.8177                 6.9405
 Frc consts  --     0.1257                 0.1281                 0.2284
 IR Inten    --     2.9443                 0.3161                 1.4251

                     7                      8                      9
                     A                      A                      A
 Frequencies --   310.9308               348.4868               412.1745
 Red. masses --     4.4775                10.5620                 4.5544
 Frc consts  --     0.2550                 0.7557                 0.4559
 IR Inten    --     3.3966                 3.8134                 4.2956

                    10                     11                     12
                     A                      A                      A
 Frequencies --   447.6355               465.1083               511.6132
 Red. masses --     9.3484                 3.9097                 6.5927
 Frc consts  --     1.1037                 0.4983                 1.0167
 IR Inten    --     4.6109                 4.1954                 4.0641

                    13                     14                     15
                     A                      A                      A
 Frequencies --   585.4228               612.3516               626.0198
 Red. masses --     8.5164                 1.3531                 5.4389
 Frc consts  --     1.7197                 0.2989                 1.2558
 IR Inten    --    13.3978                68.1297                34.1561

                    16                     17                     18
                     A                      A                      A
 Frequencies --   691.2949               745.1149               757.7974
 Red. masses --     3.0407                 5.1580                 1.8847
 Frc consts  --     0.8562                 1.6872                 0.6377
 IR Inten    --    16.7889                24.8006                72.0317

                    19                     20                     21
                     A                      A                      A
 Frequencies --   832.8552               925.9071               952.0107
 Red. masses --     2.3283                 6.7820                 1.4988
 Frc consts  --     0.9515                 3.4256                 0.8004
 IR Inten    --     0.0484                 1.8662                 0.9692

                    22                     23                     24
                     A                      A                      A
 Frequencies --   975.0203               981.8312              1088.2790
 Red. masses --     1.4481                 3.7213                 3.8601
 Frc consts  --     0.8111                 2.1136                 2.6935
 IR Inten    --     1.4490                49.0401               103.6475

                    25                     26                     27
                     A                      A                      A
 Frequencies --  1144.0136              1187.4137              1253.4481
 Red. masses --     1.2636                 2.0069                 1.7488
 Frc consts  --     0.9744                 1.6672                 1.6189
 IR Inten    --     6.6916               288.5767                10.2462

                    28                     29                     30
                     A                      A                      A
 Frequencies --  1347.9383              1359.9366              1396.2088
 Red. masses --     2.2777                 2.0187                 6.7368
 Frc consts  --     2.4383                 2.1997                 7.7376
 IR Inten    --    66.7109                29.9885                52.9405

                    31                     32                     33
                     A                      A                      A
 Frequencies --  1440.0616              1570.2798              1615.0173
 Red. masses --     2.6128                 6.2058                 7.0160
 Frc consts  --     3.1924                 9.0157                10.7819
 IR Inten    --    34.3105                12.2999                29.9381

                    34                     35                     36
                     A                      A                      A
 Frequencies --  1783.0377              2288.5164              3173.8790
 Red. masses --     9.6757                13.9298                 1.0896
 Frc consts  --    18.1240                42.9837                 6.4669
 IR Inten    --   366.6333               299.2816                 7.4840

                    37                     38                     39
                     A                      A                      A
 Frequencies --  3184.6469              3230.7073              3749.2149
 Red. masses --     1.0931                 1.0933                 1.0645
 Frc consts  --     6.5317                 6.7230                 8.8163
 IR Inten    --     5.7142                 1.0215                92.6189

 - Thermochemistry -
 -------------------
 Temperature   298.150 Kelvin.  Pressure   1.00000 Atm.
 Atom     1 has atomic number  6 and mass  12.00000

 Molecular mass:   148.02728 amu.
 Principal axes and moments of inertia in atomic units:
                           1         2         3
     Eigenvalues --   468.658403152.159303620.81769
           X            1.00000   0.00038   0.00000
           Y           -0.00038   1.00000   0.00000
           Z            0.00000   0.00000   1.00000
 This molecule is an asymmetric top.
 Rotational symmetry number  1.
 Warning -- assumption of classical behavior for rotation
           may cause significant error
 Rotational temperatures (Kelvin)      0.18481     0.02748     0.02392
 Rotational constants (GHZ):           3.85087     0.57254     0.49843
    1 imaginary frequencies ignored.
 Zero-point vibrational energy     255172.1 (Joules/Mol)
                                   60.98759 (Kcal/Mol)
 Warning -- explicit consideration of  13 degrees of freedom as
           vibrations may cause significant error
 Vibrational temperatures:     78.39    96.06   205.62   239.91   340.07
          (Kelvin)            447.36   501.39   593.03   644.05   669.19
                              736.10   842.29   881.04   900.70   994.62
                             1072.05  1090.30  1198.29  1332.17  1369.73
                             1402.83  1412.63  1565.79  1645.98  1708.42
                             1803.43  1939.38  1956.64  2008.83  2071.92
                             2259.28  2323.65  2565.39  3292.66  4566.50
                             4581.99  4648.26  5394.28

 Zero-point correction=                           0.097190 (Hartree/Particle)
 Thermal correction to Energy=                    0.106357
 Thermal correction to Enthalpy=                  0.107301
 Thermal correction to Gibbs Free Energy=         0.061885
 Sum of electronic and zero-point Energies=           -528.946628
 Sum of electronic and thermal Energies=              -528.937461
 Sum of electronic and thermal Enthalpies=            -528.936517
 Sum of electronic and thermal Free Energies=         -528.981933

                     E (Thermal)             CV                S
                      KCal/Mol        Cal/Mol-Kelvin    Cal/Mol-Kelvin
 Total                   66.740             33.245             95.587
 Electronic               0.000              0.000              0.000
 Translational            0.889              2.981             40.887
 Rotational               0.889              2.981             30.060
 Vibrational             64.963             27.283             24.640
 Vibration     1          0.596              1.976              4.648
 Vibration     2          0.598              1.970              4.246
 Vibration     3          0.616              1.910              2.764
 Vibration     4          0.624              1.883              2.472
 Vibration     5          0.655              1.785              1.830
 Vibration     6          0.700              1.653              1.357
 Vibration     7          0.726              1.578              1.173
 Vibration     8          0.776              1.444              0.919
 Vibration     9          0.807              1.366              0.803
 Vibration    10          0.823              1.327              0.751
 Vibration    11          0.867              1.224              0.630
 Vibration    12          0.942              1.063              0.475
 Vibration    13          0.972              1.006              0.429

 Optimization completed.
    -- Stationary point found.
 Normal termination of Gaussian 09 at Wed Dec 19 06:49:03 2018.
