 Gaussian 09, Revision B.01,
 Gaussian 09:  EM64L-G09RevB.01 12-Aug-2010

 ---------------------------------------------------------
 # rb3lyp/aug-cc-pVDZ opt=(ts,noeigen,calcfc) freq=noraman
 ---------------------------------------------------------

 ----------
 4-NO2-C6H3
 ----------
 Symbolic Z-matrix:
 Charge =  0 Multiplicity = 1

 SCF Done:  E(RB3LYP) =  -544.973394416     A.U. after   19 cycles
 SCF Done:  E(RB3LYP) =  -544.973410446     A.U. after   13 cycles
 SCF Done:  E(RB3LYP) =  -544.973410486     A.U. after   23 cycles
 Optimization completed.
    -- Stationary point found.
 Normal termination of Gaussian 09 at Wed Dec 19 07:03:50 2018.

 ----------------------------------------------------------------------
 #N Geom=AllCheck Guess=TCheck SCRF=Check GenChk RB3LYP/Aug-CC-pVDZ Fre
 q
 ----------------------------------------------------------------------

 4-NO2-C6H3
 ----------
 Redundant internal coordinates taken from checkpoint file:
 4-NO2-C6H3-TS.chk
 Charge =  0 Multiplicity = 1

                         Standard orientation:
 ---------------------------------------------------------------------
 Center     Atomic      Atomic             Coordinates (Angstroms)
 Number     Number       Type             X           Y           Z
 ---------------------------------------------------------------------
      1          6           0       -0.270108   -1.232918   -0.000049
      2          6           0        1.152370   -1.230904   -0.000049
      3          6           0        1.625616    0.023478    0.000000
      4          6           0        1.036454    1.291215    0.000050
      5          6           0       -0.350742    1.243032    0.000047
      6          6           0       -0.970494   -0.024423    0.000002
      7          1           0       -0.838570   -2.162590   -0.000089
      8          1           0        1.593613    2.228011    0.000086
      9          1           0       -0.956237    2.144610    0.000078
     10          7           0       -2.458236   -0.051621    0.000000
     11          8           0       -3.009792   -1.146593    0.000115
     12          8           0       -3.049045    1.026514   -0.000120
     13          7           0        3.218639    0.059950    0.000008
     14          7           0        4.287212   -0.246369   -0.000015
 ---------------------------------------------------------------------

 SCF Done:  E(RB3LYP) =  -544.973410486     A.U. after    1 cycles

 The electronic state is 1-A.
 Alpha  occ. eigenvalues --  -19.19299 -19.19290 -14.57957 -14.54232 -14.51753
 Alpha  occ. eigenvalues --  -10.29245 -10.26941 -10.24839 -10.23592 -10.23021
 Alpha  occ. eigenvalues --  -10.18751  -1.24265  -1.20559  -1.07009  -0.91759
 Alpha  occ. eigenvalues --   -0.84608  -0.79009  -0.75566  -0.66206  -0.64994
 Alpha  occ. eigenvalues --   -0.58667  -0.57009  -0.54961  -0.54867  -0.54619
 Alpha  occ. eigenvalues --   -0.53564  -0.52606  -0.48874  -0.47701  -0.44326
 Alpha  occ. eigenvalues --   -0.41179  -0.40825  -0.32810  -0.32669  -0.30921
 Alpha  occ. eigenvalues --   -0.30755  -0.28672  -0.23124
 Alpha virt. eigenvalues --   -0.12886  -0.12166  -0.08936  -0.04848  -0.02562
 Alpha virt. eigenvalues --   -0.00484   0.00495   0.01004   0.02122   0.03239
 Alpha virt. eigenvalues --    0.03457   0.04560   0.05261   0.06507   0.06624

 Mulliken atomic charges:
              1
     1  C    0.846870
     2  C   -1.605710
     3  C    0.882752
     4  C    0.898336
     5  C    1.364331
     6  C    0.753311
     7  H   -0.693577
     8  H   -0.758807
     9  H   -0.819054
    10  N    0.714910
    11  O   -0.671425
    12  O   -0.683703
    13  N    0.476733
    14  N   -0.704968
 Sum of Mulliken atomic charges =   0.00000

 Dipole moment (field-independent basis, Debye):
    X=              5.4992    Y=              3.1065    Z=              0.0001  Tot=              6.3159
 Quadrupole moment (field-independent basis, Debye-Ang):
   XX=            -66.5046   YY=            -63.3770   ZZ=            -61.7592
   XY=              5.6265   XZ=              0.0002   YZ=              0.0006

  Exact polarizability: 170.503   2.221 109.706   0.000   0.000  56.211
 Approx polarizability: 282.885  17.540 226.401   0.001  -0.001  88.634

 ******    1 imaginary frequencies (negative Signs) ******

                     1                      2                      3
                     A                      A                      A
 Frequencies --  -418.7053                29.9807                67.4946
 Red. masses --    12.8423                 9.0327                11.1274
 Frc consts  --     1.3265                 0.0048                 0.0299
 IR Inten    --    30.2186                 1.5567                 0.0376

                     4                      5                      6
                     A                      A                      A
 Frequencies --   147.5140               169.9766               265.7601
 Red. masses --    11.7260                 8.8223                 8.2308
 Frc consts  --     0.1503                 0.1502                 0.3425
 IR Inten    --     1.3041                 3.1154                 6.8244

                     7                      8                      9
                     A                      A                      A
 Frequencies --   314.3757               353.5811               415.1700
 Red. masses --     4.7080                11.9679                 4.8678
 Frc consts  --     0.2741                 0.8816                 0.4944
 IR Inten    --     0.1631                 2.4675                10.8828

                    10                     11                     12
                     A                      A                      A
 Frequencies --   457.8944               463.6529               525.5739
 Red. masses --    10.0926                 4.3469                 7.1385
 Frc consts  --     1.2468                 0.5506                 1.1618
 IR Inten    --     0.5720                 0.0933                 2.0723

                    13                     14                     15
                     A                      A                      A
 Frequencies --   579.6158               663.7234               671.7267
 Red. masses --     8.4303                 5.0561                 9.0703
 Frc consts  --     1.6687                 1.3123                 2.4113
 IR Inten    --    11.5373                 0.0264                 1.4806

                    16                     17                     18
                     A                      A                      A
 Frequencies --   749.9630               821.8808               842.7240
 Red. masses --     2.4113                 1.9865                10.8551
 Frc consts  --     0.7991                 0.7906                 4.5421
 IR Inten    --    39.0315                 7.5483                43.4407

                    19                     20                     21
                     A                      A                      A
 Frequencies --   928.0776               935.9707               971.5537
 Red. masses --     6.9244                 1.5021                 1.3791
 Frc consts  --     3.5140                 0.7753                 0.7670
 IR Inten    --     7.6648                 2.8381                 2.6340

                    22                     23                     24
                     A                      A                      A
 Frequencies --   983.3782              1086.0124              1133.3156
 Red. masses --     3.5067                 2.5982                 1.3449
 Frc consts  --     1.9980                 1.8055                 1.0178
 IR Inten    --    23.6510                16.9017                 2.9610

                    25                     26                     27
                     A                      A                      A
 Frequencies --  1246.7541              1348.9386              1381.2189
 Red. masses --     1.6391                 2.4617                10.3437
 Frc consts  --     1.5011                 2.6392                11.6266
 IR Inten    --    12.8730                29.4650               224.1352

                    28                     29                     30
                     A                      A                      A
 Frequencies --  1398.4816              1444.1849              1557.5656
 Red. masses --     2.8231                 4.3768                 6.4593
 Frc consts  --     3.2530                 5.3783                 9.2327
 IR Inten    --    27.9911                97.6373                18.0923

                    31                     32                     33
                     A                      A                      A
 Frequencies --  1601.7160              1633.7585              2298.9158
 Red. masses --    10.2051                 9.6477                13.9385
 Frc consts  --    15.4254                15.1722                43.4023
 IR Inten    --    75.7246               185.8216               249.7327

                    34                     35                     36
                     A                      A                      A
 Frequencies --  3189.4896              3195.7632              3244.6364
 Red. masses --     1.0935                 1.0903                 1.0935
 Frc consts  --     6.5541                 6.5604                 6.7824
 IR Inten    --     4.6587                 2.7070                 5.8012

 - Thermochemistry -
 -------------------
 Temperature   298.150 Kelvin.  Pressure   1.00000 Atm.
 Atom     1 has atomic number  6 and mass  12.00000

 Molecular mass:   149.02253 amu.
 Principal axes and moments of inertia in atomic units:
                           1         2         3
     Eigenvalues --   457.486743067.745743525.23247
           X            0.99999   0.00450   0.00000
           Y           -0.00450   0.99999   0.00000
           Z            0.00000   0.00000   1.00000
 This molecule is an asymmetric top.
 Rotational symmetry number  1.
 Warning -- assumption of classical behavior for rotation
           may cause significant error
 Rotational temperatures (Kelvin)      0.18933     0.02823     0.02457
 Rotational constants (GHZ):           3.94490     0.58830     0.51195
    1 imaginary frequencies ignored.
 Zero-point vibrational energy     222028.9 (Joules/Mol)
                                   53.06619 (Kcal/Mol)
 Warning -- explicit consideration of  12 degrees of freedom as
           vibrations may cause significant error
 Vibrational temperatures:     43.14    97.11   212.24   244.56   382.37
          (Kelvin)            452.32   508.72   597.34   658.81   667.09
                              756.18   833.94   954.95   966.46  1079.03
                             1182.50  1212.49  1335.29  1346.65  1397.85
                             1414.86  1562.53  1630.59  1793.80  1940.82
                             1987.26  2012.10  2077.86  2240.99  2304.51
                             2350.61  3307.62  4588.96  4597.98  4668.30

 Zero-point correction=                           0.084566 (Hartree/Particle)
 Thermal correction to Energy=                    0.093504
 Thermal correction to Enthalpy=                  0.094448
 Thermal correction to Gibbs Free Energy=         0.048962
 Sum of electronic and zero-point Energies=           -544.888844
 Sum of electronic and thermal Energies=              -544.879907
 Sum of electronic and thermal Enthalpies=            -544.878963
 Sum of electronic and thermal Free Energies=         -544.924448

                     E (Thermal)             CV                S
                      KCal/Mol        Cal/Mol-Kelvin    Cal/Mol-Kelvin
 Total                   58.674             31.791             95.733
 Electronic               0.000              0.000              0.000
 Translational            0.889              2.981             40.907
 Rotational               0.889              2.981             29.982
 Vibrational             56.897             25.830             24.843
 Vibration     1          0.594              1.984              5.831
 Vibration     2          0.598              1.970              4.225
 Vibration     3          0.617              1.905              2.704
 Vibration     4          0.625              1.879              2.436
 Vibration     5          0.672              1.736              1.624
 Vibration     6          0.702              1.646              1.339
 Vibration     7          0.730              1.568              1.150
 Vibration     8          0.779              1.437              0.909
 Vibration     9          0.816              1.343              0.772
 Vibration    10          0.821              1.331              0.756
 Vibration    11          0.881              1.193              0.597
 Vibration    12          0.936              1.075              0.486

 Optimization completed.
    -- Stationary point found.
 Normal termination of Gaussian 09 at Wed Dec 19 07:13:23 2018.
