                         Program Version 4.1.0  - RELEASE  -
|  1> ! B3LYP/G aug-cc-pVDZ TightSCF TightOpt NumFreq Grid7
|  2> %geom MaxIter 2000 TolE 1e-8 TolRMSG 5e-7 TolMaxG 1e-6 Convergence tight end
|  3> %scf MaxIter 2000 end
|  4> %freq Temp 298.15, 323.15, 373.15, 423.15, 473.15, 523.15, 573.15, 623.15 end
|  5> * xyz 1 1
|  6> C           3.49400        -0.16940        -0.36970
|  7> C           3.75900         1.20440        -0.23890
|  8> C           5.02370         1.74950         0.05220
|  9> C           6.07610         0.86390         0.22430
| 10> C           5.82600        -0.50260         0.09240
| 11> C           4.57080        -1.03130        -0.20020
| 12> H           2.49030        -0.52510        -0.58030
| 13> H           5.16460         2.82050         0.14160
| 14> H           7.07680         1.20720         0.45500
| 15> H           4.44940        -2.10410        -0.28480
| 16> N           2.72090         2.10240        -0.43140
| 17> N           1.91830         2.85030        -0.61230
| 18> H          -2.39770         1.36330        -0.38540
| 19> C          -3.39790         0.96330        -0.24990
| 20> C          -3.64200        -0.41620        -0.38820
| 21> C          -4.48700         1.76360         0.07680
| 22> C          -4.89740        -1.01970        -0.21660
| 23> C          -5.75580         1.20750         0.26420
| 24> H          -4.34400         2.83160         0.19410
| 25> C          -5.93580        -0.16860         0.11400
| 26> H          -5.06690        -2.08400        -0.32740
| 27> N          -2.59400        -1.25150        -0.73790
| 28> N          -1.78010        -1.94280        -1.04770
| 29> N           6.96580        -1.44500         0.27480
| 30> O           6.71970        -2.63740         0.14780
| 31> O           8.05390        -0.94710         0.53520
| 32> F           1.14300         0.68750         1.06630
| 33> F          -1.03290        -0.09600         0.99510
| 34> F           0.44050        -0.62140        -0.68460
| 35> F          -0.33970         1.52950        -0.47030
| 36> B           0.05270         0.37250         0.25310
| 37> H          -6.91280        -0.57970         0.26000
| 38> N          -6.93210         2.04890         0.62260
| 39> O          -8.01600         1.50040         0.77270
| 40> O          -6.76710         3.25470         0.75260
| 41>
| 42> *
| 43> %pal nprocs 42 end
| 44>
| 45>                          ****END OF INPUT****
 Total Charge           Charge          ....    1
 Multiplicity           Mult            ....    1
 Number of Electrons    NEL             ....  194
FINAL SINGLE POINT ENERGY     -1515.571495776875
FINAL SINGLE POINT ENERGY     -1515.575431029049
FINAL SINGLE POINT ENERGY     -1515.576040983448
FINAL SINGLE POINT ENERGY     -1515.574140136291
FINAL SINGLE POINT ENERGY     -1515.576145870621
FINAL SINGLE POINT ENERGY     -1515.575679151470
FINAL SINGLE POINT ENERGY     -1515.576248408387
FINAL SINGLE POINT ENERGY     -1515.574091189067
FINAL SINGLE POINT ENERGY     -1515.576308054563
FINAL SINGLE POINT ENERGY     -1515.576323346488
FINAL SINGLE POINT ENERGY     -1515.577075997030
FINAL SINGLE POINT ENERGY     -1515.577074837061
FINAL SINGLE POINT ENERGY     -1515.577074684625
FINAL SINGLE POINT ENERGY     -1515.577072113374
FINAL SINGLE POINT ENERGY     -1515.577074640691
FINAL SINGLE POINT ENERGY     -1515.577061252866
FINAL SINGLE POINT ENERGY     -1515.577074471412
FINAL SINGLE POINT ENERGY     -1515.577069354694
FINAL SINGLE POINT ENERGY     -1515.577074452295
                    ***********************HURRAY********************

CARTESIAN COORDINATES (ANGSTROEM)
---------------------------------
  C      3.160270    0.118655    0.089548
  C      3.737515    1.218274    0.746424
  C      5.058810    1.663615    0.548866
  C      5.840409    0.962572   -0.360678
  C      5.276806   -0.131732   -1.022476
  C      3.966085   -0.563802   -0.817848
  H      2.136846   -0.183888    0.292637
  H      5.450001    2.523177    1.089603
  H      6.869904    1.248427   -0.562912
  H      3.588484   -1.425662   -1.362776
  N      2.967193    1.938720    1.657021
  N      2.378293    2.537250    2.381404
  H     -2.045786    0.848964    0.402827
  C     -3.067903    0.591641    0.139744
  C     -3.642476   -0.621065    0.555763
  C     -3.874592    1.443402   -0.610058
  C     -4.961954   -1.020316    0.268059
  C     -5.183531    1.058634   -0.901905
  H     -3.499031    2.399858   -0.965695
  C     -5.744463   -0.149886   -0.480040
  H     -5.351114   -1.973699    0.620052
  N     -2.871307   -1.510695    1.301083
  N     -2.281880   -2.243404    1.888863
  N      6.125097   -0.877394   -2.001075
  O      5.604635   -1.824580   -2.571828
  O      7.270735   -0.478734   -2.152214
  F      1.204661   -0.015021    2.465898
  F     -1.111125    0.239500    2.490886
  F     -0.089505   -0.857348    0.736442
  F      0.184913    1.417853    0.971955
  B      0.047267    0.193674    1.691459
  H     -6.772664   -0.391237   -0.738939
  N     -6.032807    1.986745   -1.708510
  O     -7.176780    1.624070   -1.940991
  O     -5.514706    3.032537   -2.071390

 Multiplicity           Mult            ....    1
 Number of Electrons    NEL             ....  194
 Basis Dimension        Dim             ....  693

ORBITAL ENERGIES
----------------

  NO   OCC          E(Eh)            E(eV)
   0   2.0000     -24.767041      -673.9454
   1   2.0000     -24.767017      -673.9448
   2   2.0000     -24.765154      -673.8941
   3   2.0000     -24.765119      -673.8932
   4   2.0000     -19.310521      -525.4660
   5   2.0000     -19.310512      -525.4657
   6   2.0000     -19.310490      -525.4652
   7   2.0000     -19.310466      -525.4645
   8   2.0000     -14.699029      -399.9809
   9   2.0000     -14.699015      -399.9805
  10   2.0000     -14.692126      -399.7931
  11   2.0000     -14.692095      -399.7922
  12   2.0000     -14.661236      -398.9525
  13   2.0000     -14.661213      -398.9519
  14   2.0000     -10.452913      -284.4382
  15   2.0000     -10.452888      -284.4375
  16   2.0000     -10.412909      -283.3497
  17   2.0000     -10.412894      -283.3493
  18   2.0000     -10.393370      -282.8180
  19   2.0000     -10.393350      -282.8174
  20   2.0000     -10.384655      -282.5808
  21   2.0000     -10.384636      -282.5803
  22   2.0000     -10.373870      -282.2874
  23   2.0000     -10.373861      -282.2871
  24   2.0000     -10.370984      -282.2088
  25   2.0000     -10.370969      -282.2084
  26   2.0000      -6.969763      -189.6569
  27   2.0000      -1.362676       -37.0803
  28   2.0000      -1.362663       -37.0800
  29   2.0000      -1.349939       -36.7337
  30   2.0000      -1.349834       -36.7309
  31   2.0000      -1.303175       -35.4612
  32   2.0000      -1.251806       -34.0634
  33   2.0000      -1.249027       -33.9877
  34   2.0000      -1.248028       -33.9606
  35   2.0000      -1.192381       -32.4463
  36   2.0000      -1.192369       -32.4460
  37   2.0000      -1.085735       -29.5443
  38   2.0000      -1.085715       -29.5438
  39   2.0000      -1.017087       -27.6763
  40   2.0000      -1.017071       -27.6759
  41   2.0000      -0.942758       -25.6538
  42   2.0000      -0.942734       -25.6531
  43   2.0000      -0.918168       -24.9846
  44   2.0000      -0.918151       -24.9842
  45   2.0000      -0.808373       -21.9969
  46   2.0000      -0.808333       -21.9959
  47   2.0000      -0.805828       -21.9277
  48   2.0000      -0.805771       -21.9261
  49   2.0000      -0.741454       -20.1760
  50   2.0000      -0.741370       -20.1737
  51   2.0000      -0.699229       -19.0270
  52   2.0000      -0.699084       -19.0230
  53   2.0000      -0.699059       -19.0224
  54   2.0000      -0.698489       -19.0069
  55   2.0000      -0.694256       -18.8917
  56   2.0000      -0.694185       -18.8897
  57   2.0000      -0.665877       -18.1194
  58   2.0000      -0.665772       -18.1166
  59   2.0000      -0.665759       -18.1162
  60   2.0000      -0.665334       -18.1047
  61   2.0000      -0.658322       -17.9139
  62   2.0000      -0.646413       -17.5898
  63   2.0000      -0.645929       -17.5766
  64   2.0000      -0.626042       -17.0355
  65   2.0000      -0.625636       -17.0244
  66   2.0000      -0.624122       -16.9832
  67   2.0000      -0.622450       -16.9377
  68   2.0000      -0.612116       -16.6565
  69   2.0000      -0.611219       -16.6321
  70   2.0000      -0.597518       -16.2593
  71   2.0000      -0.596305       -16.2263
  72   2.0000      -0.596168       -16.2226
  73   2.0000      -0.584455       -15.9038
  74   2.0000      -0.584388       -15.9020
  75   2.0000      -0.554485       -15.0883
  76   2.0000      -0.554316       -15.0837
  77   2.0000      -0.534995       -14.5580
  78   2.0000      -0.533962       -14.5298
  79   2.0000      -0.515816       -14.0361
  80   2.0000      -0.513511       -13.9733
  81   2.0000      -0.492828       -13.4105
  82   2.0000      -0.490574       -13.3492
  83   2.0000      -0.489770       -13.3273
  84   2.0000      -0.464963       -12.6523
  85   2.0000      -0.463569       -12.6143
  86   2.0000      -0.461981       -12.5711
  87   2.0000      -0.453897       -12.3512
  88   2.0000      -0.453090       -12.3292
  89   2.0000      -0.445534       -12.1236
  90   2.0000      -0.445347       -12.1185
  91   2.0000      -0.439436       -11.9577
  92   2.0000      -0.439374       -11.9560
  93   2.0000      -0.435781       -11.8582
  94   2.0000      -0.435592       -11.8531
  95   2.0000      -0.425422       -11.5763
  96   2.0000      -0.425413       -11.5761
  97   0.0000      -0.274772        -7.4769
  98   0.0000      -0.274722        -7.4756
  99   0.0000      -0.243623        -6.6293
 100   0.0000      -0.243478        -6.6254
 101   0.0000      -0.206151        -5.6097

MULLIKEN ATOMIC CHARGES
-----------------------
   0 C :    1.603797
   1 C :    0.490868
   2 C :    1.012659
   3 C :    1.000618
   4 C :    0.477344
   5 C :    0.599416
   6 H :   -1.167009
   7 H :   -0.875215
   8 H :   -0.821118
   9 H :   -0.844684
  10 N :    0.507596
  11 N :   -0.638154
  12 H :   -1.167314
  13 C :    1.603434
  14 C :    0.485005
  15 C :    0.601647
  16 C :    1.016301
  17 C :    0.476434
  18 H :   -0.845660
  19 C :    1.001267
  20 H :   -0.876886
  21 N :    0.509002
  22 N :   -0.636352
  23 N :    0.706944
  24 O :   -0.616507
  25 O :   -0.632492
  26 F :   -0.511674
  27 F :   -0.510509
  28 F :   -0.736425
  29 F :   -0.735475
  30 B :    1.885656
  31 H :   -0.821480
  32 N :    0.707972
  33 O :   -0.632461
  34 O :   -0.616546
Sum of atomic charges:    1.0000000

LOEWDIN ATOMIC CHARGES
----------------------
   0 C :    0.149007
   1 C :   -0.135031
   2 C :    0.123150
   3 C :    0.111975
   4 C :   -0.073766
   5 C :    0.123892
   6 H :   -0.005168
   7 H :    0.037150
   8 H :    0.024872
   9 H :    0.025952
  10 N :    0.079873
  11 N :    0.447627
  12 H :   -0.005047
  13 C :    0.148971
  14 C :   -0.135031
  15 C :    0.123893
  16 C :    0.123137
  17 C :   -0.073761
  18 H :    0.025963
  19 C :    0.111968
  20 H :    0.037152
  21 N :    0.079875
  22 N :    0.447627
  23 N :   -0.373764
  24 O :    0.183347
  25 O :    0.183643
  26 F :   -0.015120
  27 F :   -0.015111
  28 F :   -0.037346
  29 F :   -0.037350
  30 B :   -0.700704
  31 H :    0.024878
  32 N :   -0.373761
  33 O :    0.183631
  34 O :    0.183377

  Mayer bond orders larger than 0.1
B(  0-C ,  1-C ) :   0.7735 B(  0-C ,  2-C ) :  -0.3968 B(  0-C ,  3-C ) :   0.2520
B(  0-C ,  4-C ) :  -0.4719 B(  0-C ,  5-C ) :   2.2453 B(  0-C ,  6-H ) :  -0.8978
B(  0-C ,  9-H ) :   0.3682 B(  0-C , 10-N ) :  -0.4934 B(  0-C , 11-N ) :   0.1848
B(  1-C ,  2-C ) :   0.3906 B(  1-C ,  3-C ) :  -0.4322 B(  1-C ,  4-C ) :   0.6189
B(  1-C ,  5-C ) :  -0.8956 B(  1-C ,  6-H ) :   0.3593 B(  1-C ,  7-H ) :   1.5151
B(  1-C ,  8-H ) :  -0.2464 B(  1-C ,  9-H ) :  -0.1861 B(  1-C , 10-N ) :   1.0377
B(  1-C , 11-N ) :  -0.8594 B(  2-C ,  3-C ) :   2.5836 B(  2-C ,  4-C ) :  -0.6654
B(  2-C ,  5-C ) :   0.4767 B(  2-C ,  6-H ) :   0.2193 B(  2-C ,  7-H ) :  -1.4793
B(  2-C ,  8-H ) :   0.1739 B(  2-C , 23-N ) :   0.1115 B(  3-C ,  4-C ) :   0.6501
B(  3-C ,  5-C ) :  -0.3815 B(  3-C ,  7-H ) :   0.3086 B(  3-C ,  8-H ) :  -0.7511
B(  3-C , 25-O ) :  -0.1422 B(  4-C ,  5-C ) :   0.6263 B(  4-C ,  6-H ) :  -0.2448
B(  4-C ,  7-H ) :  -0.2193 B(  4-C ,  8-H ) :   0.7788 B(  4-C ,  9-H ) :   0.5741
B(  4-C , 23-N ) :   0.6637 B(  4-C , 24-O ) :   0.1421 B(  4-C , 25-O ) :   0.2125
B(  5-C ,  8-H ) :   0.2016 B(  5-C ,  9-H ) :  -0.7013 B(  5-C , 23-N ) :  -0.1936
B(  6-H , 28-F ) :   0.1265 B(  6-H , 29-F ) :   0.1016 B(  6-H , 30-B ) :  -0.1339
B(  7-H , 10-N ) :  -0.2654 B( 10-N , 11-N ) :   1.4011 B( 12-H , 13-C ) :  -0.9049
B( 12-H , 14-C ) :   0.3561 B( 12-H , 16-C ) :   0.2173 B( 12-H , 17-C ) :  -0.2432
B( 12-H , 28-F ) :   0.1008 B( 12-H , 29-F ) :   0.1255 B( 12-H , 30-B ) :  -0.1336
B( 13-C , 14-C ) :   0.7832 B( 13-C , 15-C ) :   2.2629 B( 13-C , 16-C ) :  -0.3995
B( 13-C , 17-C ) :  -0.4780 B( 13-C , 18-H ) :   0.3883 B( 13-C , 19-C ) :   0.2582
B( 13-C , 21-N ) :  -0.4969 B( 13-C , 22-N ) :   0.1866 B( 14-C , 15-C ) :  -0.9108
B( 14-C , 16-C ) :   0.3780 B( 14-C , 17-C ) :   0.6279 B( 14-C , 18-H ) :  -0.1867
B( 14-C , 19-C ) :  -0.4383 B( 14-C , 20-H ) :   1.5277 B( 14-C , 21-N ) :   1.0420
B( 14-C , 22-N ) :  -0.8616 B( 14-C , 31-H ) :  -0.2479 B( 15-C , 16-C ) :   0.4860
B( 15-C , 17-C ) :   0.6227 B( 15-C , 18-H ) :  -0.7164 B( 15-C , 19-C ) :  -0.3832
B( 15-C , 31-H ) :   0.1994 B( 15-C , 32-N ) :  -0.1937 B( 16-C , 17-C ) :  -0.6744
B( 16-C , 19-C ) :   2.5914 B( 16-C , 20-H ) :  -1.4929 B( 16-C , 31-H ) :   0.1778
B( 16-C , 32-N ) :   0.1127 B( 17-C , 18-H ) :   0.5725 B( 17-C , 19-C ) :   0.6506
B( 17-C , 20-H ) :  -0.2191 B( 17-C , 31-H ) :   0.7824 B( 17-C , 32-N ) :   0.6623
B( 17-C , 33-O ) :   0.2121 B( 17-C , 34-O ) :   0.1427 B( 19-C , 20-H ) :   0.3120
B( 19-C , 31-H ) :  -0.7570 B( 19-C , 33-O ) :  -0.1408 B( 20-H , 21-N ) :  -0.2675
B( 21-N , 22-N ) :   1.4006 B( 23-N , 24-O ) :   0.8987 B( 23-N , 25-O ) :   0.8771
B( 24-O , 25-O ) :   0.3363 B( 26-F , 27-F ) :   0.3661 B( 26-F , 30-B ) :   0.5345
B( 27-F , 30-B ) :   0.5345 B( 28-F , 30-B ) :   0.3456 B( 29-F , 30-B ) :   0.3458
B( 32-N , 33-O ) :   0.8774 B( 32-N , 34-O ) :   0.8984 B( 33-O , 34-O ) :   0.3363

FINAL SINGLE POINT ENERGY     -1515.577074293354

DIPOLE MOMENT
-------------
                                X             Y             Z
Electronic contribution:      0.00187      -1.01393       9.97270
Nuclear contribution   :     -0.00055       0.90864      -8.96492
                        -----------------------------------------
Total Dipole Moment    :      0.00132      -0.10528       1.00777
                        -----------------------------------------
Magnitude (a.u.)       :      1.01326
Magnitude (Debye)      :      2.57550

VIBRATIONAL FREQUENCIES
-----------------------

Scaling factor for frequencies =  1.000000000 (already applied!)

   0:         0.00 cm**-1
   1:         0.00 cm**-1
   2:         0.00 cm**-1
   3:         0.00 cm**-1
   4:         0.00 cm**-1
   5:         0.00 cm**-1
   6:        -2.97 cm**-1 ***imaginary mode***
   7:         9.04 cm**-1
   8:        14.45 cm**-1
   9:        21.02 cm**-1
  10:        21.40 cm**-1
  11:        39.51 cm**-1
  12:        46.05 cm**-1
  13:        50.24 cm**-1
  14:        65.21 cm**-1
  15:        69.97 cm**-1
  16:        74.77 cm**-1
  17:        81.35 cm**-1
  18:        85.65 cm**-1
  19:        90.50 cm**-1
  20:        93.35 cm**-1
  21:       109.08 cm**-1
  22:       145.03 cm**-1
  23:       155.57 cm**-1
  24:       223.66 cm**-1
  25:       223.69 cm**-1
  26:       257.28 cm**-1
  27:       258.23 cm**-1
  28:       327.30 cm**-1
  29:       328.58 cm**-1
  30:       328.74 cm**-1
  31:       346.49 cm**-1
  32:       408.59 cm**-1
  33:       409.26 cm**-1
  34:       432.13 cm**-1
  35:       432.81 cm**-1
  36:       485.50 cm**-1
  37:       486.18 cm**-1
  38:       498.11 cm**-1
  39:       498.45 cm**-1
  40:       500.88 cm**-1
  41:       548.15 cm**-1
  42:       548.69 cm**-1
  43:       550.68 cm**-1
  44:       551.18 cm**-1
  45:       570.18 cm**-1
  46:       570.40 cm**-1
  47:       641.92 cm**-1
  48:       643.10 cm**-1
  49:       673.84 cm**-1
  50:       675.00 cm**-1
  51:       735.14 cm**-1
  52:       766.94 cm**-1
  53:       767.00 cm**-1
  54:       772.33 cm**-1
  55:       772.90 cm**-1
  56:       842.22 cm**-1
  57:       842.70 cm**-1
  58:       863.86 cm**-1
  59:       863.99 cm**-1
  60:       898.53 cm**-1
  61:       899.89 cm**-1
  62:      1003.33 cm**-1
  63:      1003.94 cm**-1
  64:      1007.46 cm**-1
  65:      1016.22 cm**-1
  66:      1021.06 cm**-1
  67:      1021.87 cm**-1
  68:      1031.12 cm**-1
  69:      1057.56 cm**-1
  70:      1094.84 cm**-1
  71:      1106.48 cm**-1
  72:      1108.89 cm**-1
  73:      1119.59 cm**-1
  74:      1120.52 cm**-1
  75:      1128.92 cm**-1
  76:      1134.56 cm**-1
  77:      1197.05 cm**-1
  78:      1200.11 cm**-1
  79:      1312.54 cm**-1
  80:      1315.77 cm**-1
  81:      1374.14 cm**-1
  82:      1374.21 cm**-1
  83:      1379.26 cm**-1
  84:      1379.75 cm**-1
  85:      1437.73 cm**-1
  86:      1439.38 cm**-1
  87:      1482.63 cm**-1
  88:      1484.57 cm**-1
  89:      1604.55 cm**-1
  90:      1605.32 cm**-1
  91:      1616.31 cm**-1
  92:      1616.99 cm**-1
  93:      1653.47 cm**-1
  94:      1654.17 cm**-1
  95:      2382.54 cm**-1
  96:      2382.62 cm**-1
  97:      3215.88 cm**-1
  98:      3218.69 cm**-1
  99:      3233.04 cm**-1
 100:      3233.50 cm**-1
 101:      3235.59 cm**-1
 102:      3237.06 cm**-1
 103:      3246.04 cm**-1
 104:      3249.84 cm**-1

IR SPECTRUM
-----------

 Mode    freq (cm**-1)   T**2         TX         TY         TZ
-------------------------------------------------------------------
   7:         9.04    1.565356  ( -0.239112   0.220554   1.208113)
   8:        14.45    1.787219  (  0.582787  -1.027546   0.625882)
   9:        21.02    1.881551  (  0.932363  -0.901951  -0.445796)
  10:        21.40    0.456396  (  0.355908  -0.160602   0.551300)
  11:        39.51    0.397669  (  0.500695  -0.382557  -0.024957)
  12:        46.05    0.520314  ( -0.057148   0.290586  -0.657730)
  13:        50.24    1.697771  ( -1.187861   0.498184   0.196393)
  14:        65.21    0.103573  ( -0.265676   0.133281  -0.123391)
  15:        69.97   14.553353  ( -2.937078   2.426883   0.192778)
  16:        74.77    1.049545  ( -0.394603  -0.222267   0.918929)
  17:        81.35   14.288631  ( -0.042586   0.221899  -3.773272)
  18:        85.65   10.040051  ( -2.708947  -1.615995  -0.300362)
  19:        90.50    9.689906  ( -3.018874  -0.759113   0.007145)
  20:        93.35    0.026989  ( -0.037386   0.104225   0.121360)
  21:       109.08   31.529319  (  5.108747   2.318203   0.236550)
  22:       145.03    0.608170  ( -0.061038   0.177413  -0.756947)
  23:       155.57   10.470442  (  3.196296   0.502506   0.040269)
  24:       223.66    0.808766  ( -0.411469   0.413248   0.684606)
  25:       223.69    0.739166  (  0.286988  -0.643532   0.492615)
  26:       257.28    0.367343  (  0.562083   0.108260   0.199210)
  27:       258.23    2.736981  (  1.468372   0.761768   0.023945)
  28:       327.30    0.221856  (  0.085913   0.095612  -0.453137)
  29:       328.58   11.830549  (  2.749363  -2.057446  -0.196126)
  30:       328.74    5.935081  ( -0.002239  -0.219021   2.426336)
  31:       346.49    0.528442  ( -0.001810  -0.005831   0.726914)
  32:       408.59    0.074470  ( -0.155963   0.002773  -0.223916)
  33:       409.26    0.028313  (  0.072601  -0.059053  -0.139838)
  34:       432.13    0.252049  ( -0.333044  -0.134103  -0.350923)
  35:       432.81    0.038068  (  0.101970  -0.121380  -0.113740)
  36:       485.50    5.306391  ( -2.016833   1.109537   0.087765)
  37:       486.18    4.306932  (  0.006200   0.287177  -2.055340)
  38:       498.11    3.216386  (  1.782248   0.195398   0.042396)
  39:       498.45    1.281993  (  1.106004   0.215535   0.110869)
  40:       500.88   18.416850  ( -4.231627  -0.713893  -0.023239)
  41:       548.15    6.398916  (  0.285364  -2.175230   1.259309)
  42:       548.69    7.927965  (  0.195283  -0.913166  -2.656305)
  43:       550.68    1.879603  (  0.936680  -0.083819  -0.997601)
  44:       551.18    2.808208  (  1.229363  -0.096705   1.134691)
  45:       570.18    1.042066  ( -0.956845  -0.344029  -0.090325)
  46:       570.40    0.183045  ( -0.333994  -0.205628   0.170911)
  47:       641.92    4.449852  ( -2.078619  -0.138506  -0.331680)
  48:       643.10    1.523442  (  1.175215   0.087566  -0.366940)
  49:       673.84   12.103825  (  1.100373  -1.448203   2.965757)
  50:       675.00   10.050780  (  0.799645  -1.689033  -2.560960)
  51:       735.14    0.628232  ( -0.026835  -0.042284   0.791027)
  52:       766.94   15.639403  (  2.115828  -3.314957   0.416815)
  53:       767.00   24.262067  (  0.472722  -0.081216  -4.902245)
  54:       772.33   21.069236  ( -2.622165   1.907140   3.249046)
  55:       772.90   25.050932  ( -3.292256   2.985260  -2.302218)
  56:       842.22    5.204805  (  0.518284  -1.229379   1.850625)
  57:       842.70    4.568725  ( -0.831061   1.769855   0.863524)
  58:       863.86   29.774127  ( -1.196626   0.555267   5.294704)
  59:       863.99   54.639622  ( -5.299239   5.113001  -0.644129)
  60:       898.53   27.512000  (  0.100552  -0.482818  -5.221951)
  61:       899.89    9.598394  ( -1.643894   2.336977  -1.197726)
  62:      1003.33    3.368244  ( -0.121915   1.436849   1.135273)
  63:      1003.94    6.082044  (  0.442573   2.313137  -0.731827)
  64:      1007.46  122.062060  (  4.920984   9.837126   1.037748)
  65:      1016.22    0.716007  (  0.057979  -0.669966   0.513605)
  66:      1021.06   55.852784  ( -1.580946   7.304086  -0.060983)
  67:      1021.87   27.886902  ( -0.785944   0.761802   5.166125)
  68:      1031.12   75.496320  (  4.997358   7.066651   0.764967)
  69:      1057.56  271.664810  (  0.011319   1.645465 -16.399912)
  70:      1094.84  763.465109  ( 27.239330  -4.579370  -0.716516)
  71:      1106.48   21.631692  (  0.746014  -1.208205   4.428927)
  72:      1108.89   25.904040  (  4.217326   2.541931   1.287162)
  73:      1119.59   40.542607  (  0.398696   0.243600   6.350142)
  74:      1120.52   44.257815  (  4.005180  -5.304529   0.279862)
  75:      1128.92    8.812094  ( -0.471195   1.537900  -2.494982)
  76:      1134.56   83.272691  (  7.957917   4.453113  -0.337685)
  77:      1197.05    2.167607  (  1.154613   0.051689   0.912033)
  78:      1200.11   10.183725  ( -2.707150   1.663149   0.298328)
  79:      1312.54    0.304874  (  0.358428  -0.202064   0.368202)
  80:      1315.77    6.151517  ( -1.655717  -1.831999  -0.232161)
  81:      1374.14    2.467784  ( -0.847305  -0.341892  -1.277876)
  82:      1374.21  122.446410  ( -9.636101  -5.423283  -0.424224)
  83:      1379.26  202.714088  ( -8.930879  10.360302  -3.951914)
  84:      1379.75  141.139445  ( -4.485776   3.785257  10.329041)
  85:      1437.73    9.090558  ( -2.406821  -1.784695   0.335614)
  86:      1439.38    7.876388  (  2.544673   1.117243   0.390890)
  87:      1482.63    0.907393  ( -0.129662   0.733103  -0.594257)
  88:      1484.57    1.904246  (  1.343329   0.289612  -0.125851)
  89:      1604.55   82.734874  (  6.515281   6.211249  -1.306285)
  90:      1605.32  119.989927  ( -7.990197  -7.115634  -2.348281)
  91:      1616.31   74.393376  ( -6.554653   3.881554  -4.045175)
  92:      1616.99   72.216435  ( -5.972447   3.408533   4.992816)
  93:      1653.47  143.513830  (  8.931054   7.924439  -0.976406)
  94:      1654.17  135.332516  (  8.785687   7.198299   2.515692)
  95:      2382.54  124.521107  (  4.788716  -3.448067  -9.471015)
  96:      2382.62  181.703407  (  9.329252  -8.987189   3.728123)
  97:      3215.88    5.850487  ( -0.664775   2.218144  -0.698855)
  98:      3218.69    5.528674  ( -0.526122   1.357596   1.846294)
  99:      3233.04   15.642559  (  3.285988  -1.002250   1.959677)
 100:      3233.50   12.647863  (  1.333517   3.264749  -0.459353)
 101:      3235.59   47.808728  ( -6.089904   0.625239   3.214168)
 102:      3237.06   60.254505  ( -7.468917  -0.602793  -2.026431)
 103:      3246.04  121.203790  (-10.522294  -3.012717  -1.186867)
 104:      3249.84   49.470159  ( -6.578809  -1.612314   1.894695)

--------------------------
THERMOCHEMISTRY AT 623.15K
--------------------------

Temperature         ... 623.15 K
Pressure            ... 1.00 atm
Total Mass          ... 387.04 AMU

Throughout the following assumptions are being made:
  (1) The electronic state is orbitally nondegenerate
  (2) There are no thermally accessible electronically excited states
  (3) Hindered rotations indicated by low frequency modes are not
      treated as such but are treated as vibrations and this may
      cause some error
  (4) All equations used are the standard statistical mechanics
      equations for an ideal gas
  (5) All vibrations are strictly harmonic

freq.       9.04  E(vib)   ...       1.23
freq.      14.45  E(vib)   ...       1.22
freq.      21.02  E(vib)   ...       1.21
freq.      21.40  E(vib)   ...       1.21
freq.      39.51  E(vib)   ...       1.18
freq.      46.05  E(vib)   ...       1.17
freq.      50.24  E(vib)   ...       1.17
freq.      65.21  E(vib)   ...       1.15
freq.      69.97  E(vib)   ...       1.14
freq.      74.77  E(vib)   ...       1.13
freq.      81.35  E(vib)   ...       1.13
freq.      85.65  E(vib)   ...       1.12
freq.      90.50  E(vib)   ...       1.11
freq.      93.35  E(vib)   ...       1.11
freq.     109.08  E(vib)   ...       1.09
freq.     145.03  E(vib)   ...       1.04
freq.     155.57  E(vib)   ...       1.03
freq.     223.66  E(vib)   ...       0.95
freq.     223.69  E(vib)   ...       0.95
freq.     257.28  E(vib)   ...       0.91
freq.     258.23  E(vib)   ...       0.91
freq.     327.30  E(vib)   ...       0.83
freq.     328.58  E(vib)   ...       0.83
freq.     328.74  E(vib)   ...       0.83
freq.     346.49  E(vib)   ...       0.81
freq.     408.59  E(vib)   ...       0.74
freq.     409.26  E(vib)   ...       0.74
freq.     432.13  E(vib)   ...       0.72
freq.     432.81  E(vib)   ...       0.72
freq.     485.50  E(vib)   ...       0.67
freq.     486.18  E(vib)   ...       0.67
freq.     498.11  E(vib)   ...       0.66
freq.     498.45  E(vib)   ...       0.66
freq.     500.88  E(vib)   ...       0.66
freq.     548.15  E(vib)   ...       0.62
freq.     548.69  E(vib)   ...       0.62
freq.     550.68  E(vib)   ...       0.61
freq.     551.18  E(vib)   ...       0.61
freq.     570.18  E(vib)   ...       0.60
freq.     570.40  E(vib)   ...       0.60
freq.     641.92  E(vib)   ...       0.54
freq.     643.10  E(vib)   ...       0.54
freq.     673.84  E(vib)   ...       0.52
freq.     675.00  E(vib)   ...       0.51
freq.     735.14  E(vib)   ...       0.47
freq.     766.94  E(vib)   ...       0.45
freq.     767.00  E(vib)   ...       0.45
freq.     772.33  E(vib)   ...       0.45
freq.     772.90  E(vib)   ...       0.45
freq.     842.22  E(vib)   ...       0.40
freq.     842.70  E(vib)   ...       0.40
freq.     863.86  E(vib)   ...       0.39
freq.     863.99  E(vib)   ...       0.39
freq.     898.53  E(vib)   ...       0.37
freq.     899.89  E(vib)   ...       0.37
freq.    1003.33  E(vib)   ...       0.31
freq.    1003.94  E(vib)   ...       0.31
freq.    1007.46  E(vib)   ...       0.31
freq.    1016.22  E(vib)   ...       0.31
freq.    1021.06  E(vib)   ...       0.31
freq.    1021.87  E(vib)   ...       0.30
freq.    1031.12  E(vib)   ...       0.30
freq.    1057.56  E(vib)   ...       0.29
freq.    1094.84  E(vib)   ...       0.27
freq.    1106.48  E(vib)   ...       0.27
freq.    1108.89  E(vib)   ...       0.27
freq.    1119.59  E(vib)   ...       0.26
freq.    1120.52  E(vib)   ...       0.26
freq.    1128.92  E(vib)   ...       0.26
freq.    1134.56  E(vib)   ...       0.25
freq.    1197.05  E(vib)   ...       0.23
freq.    1200.11  E(vib)   ...       0.23
freq.    1312.54  E(vib)   ...       0.19
freq.    1315.77  E(vib)   ...       0.19
freq.    1374.14  E(vib)   ...       0.17
freq.    1374.21  E(vib)   ...       0.17
freq.    1379.26  E(vib)   ...       0.17
freq.    1379.75  E(vib)   ...       0.17
freq.    1437.73  E(vib)   ...       0.15
freq.    1439.38  E(vib)   ...       0.15
freq.    1482.63  E(vib)   ...       0.14
freq.    1484.57  E(vib)   ...       0.14
freq.    1604.55  E(vib)   ...       0.12
freq.    1605.32  E(vib)   ...       0.12
freq.    1616.31  E(vib)   ...       0.11
freq.    1616.99  E(vib)   ...       0.11
freq.    1653.47  E(vib)   ...       0.11
freq.    1654.17  E(vib)   ...       0.11
freq.    2382.54  E(vib)   ...       0.03
freq.    2382.62  E(vib)   ...       0.03
freq.    3215.88  E(vib)   ...       0.01
freq.    3218.69  E(vib)   ...       0.01
freq.    3233.04  E(vib)   ...       0.01
freq.    3233.50  E(vib)   ...       0.01
freq.    3235.59  E(vib)   ...       0.01
freq.    3237.06  E(vib)   ...       0.01
freq.    3246.04  E(vib)   ...       0.01
freq.    3249.84  E(vib)   ...       0.01

------------
INNER ENERGY
------------

The inner energy is: U= E(el) + E(ZPE) + E(vib) + E(rot) + E(trans)
    E(el)   - is the total energy from the electronic structure calculation
              = E(kin-el) + E(nuc-el) + E(el-el) + E(nuc-nuc)
    E(ZPE)  - the the zero temperature vibrational energy from the frequency calculation
    E(vib)  - the the finite temperature correction to E(ZPE) due to population
              of excited vibrational states
    E(rot)  - is the rotational thermal energy
    E(trans)- is the translational thermal energy

Summary of contributions to the inner energy U:
Electronic energy                ...  -1515.57707433 Eh
Zero point energy                ...      0.21723655 Eh     136.32 kcal/mol
Thermal vibrational correction   ...      0.07998883 Eh      50.19 kcal/mol
Thermal rotational correction    ...      0.00296009 Eh       1.86 kcal/mol
Thermal translational correction ...      0.00296009 Eh       1.86 kcal/mol
-----------------------------------------------------------------------
Total thermal energy                  -1515.27392878 Eh

Summary of corrections to the electronic energy:
(perhaps to be used in another calculation)
Total thermal correction                  0.08590900 Eh      53.91 kcal/mol
Non-thermal (ZPE) correction              0.21723655 Eh     136.32 kcal/mol
-----------------------------------------------------------------------
Total correction                          0.30314554 Eh     190.23 kcal/mol

--------
ENTHALPY
--------

The enthalpy is H = U + kB*T
                kB is Boltzmann's constant
Total free energy                 ...  -1515.27392878 Eh
Thermal Enthalpy correction       ...      0.00197345 Eh       1.24 kcal/mol
-----------------------------------------------------------------------
Total Enthalpy                    ...  -1515.27195533 Eh

Note: Rotational entropy computed according to Herzberg
Infrared and Raman Spectra, Chapter V,1, Van Nostrand Reinhold, 1945

Rotational constants in cm-1:     0.010386     0.002101     0.002031

                             ****ORCA TERMINATED NORMALLY****
TOTAL RUN TIME: 1 days 6 hours 55 minutes 18 seconds 295 msec
