                         Program Version 4.1.0  - RELEASE  -
|  1> ! B3LYP/G 6-31G(d,p) TightSCF TightOpt NumFreq Grid7
|  2> %geom MaxIter 2000 TolE 1e-8 TolRMSG 5e-7 TolMaxG 1e-6 Convergence tight end
|  3> %scf MaxIter 2000 end
|  4> %freq Temp 298.15, 323.15, 373.15, 423.15, 473.15, 523.15, 573.15, 623.15 end
|  5> * xyz 1 1
|  6>   C   -3.81619675061860     -0.72246164241633     -0.16769685165243
|  7>   C   -4.48382076069440      0.04065761943782      0.80443687076830
|  8>   C   -5.78386614891603     -0.22198332021075      1.27251547599194
|  9>   C   -6.44343728910791     -1.32025765407579      0.74131232167838
| 10>   C   -5.79007719379262     -2.08900643354989     -0.22407406586037
| 11>   C   -4.50538405989135     -1.81396007845168     -0.68696607413399
| 12>   H   -2.81216002960794     -0.43932058607053     -0.48956486332721
| 13>   H   -6.24641563609927      0.40892739990444      2.02301427231282
| 14>   H   -7.44453672510416     -1.58958600542854      1.05414728638892
| 15>   H   -4.06158237255622     -2.45058720247284     -1.44238510512684
| 16>   N   -3.81446161840853      1.13431143662752      1.33608464222933
| 17>   N   -3.18398591610844      1.96300679872108      1.73972117054051
| 18>   S   -0.30683679124818      1.11235093354192      0.25901999859382
| 19>   O   -0.94917977807072      1.12497019152548      1.60736319687668
| 20>   O   0.96966465017758      0.28595278493204      0.31571893492678
| 21>   O   -1.20966601570593      0.68229121761834     -0.84010244664597
| 22>   H   2.57608202211699     -0.71409471196745      1.42715772221723
| 23>   C   3.47847555817773     -1.23323383676076      1.12036469873732
| 24>   C   3.78027809502272     -1.35606778472169     -0.24870387901227
| 25>   C   4.37545919934168     -1.79758698659720      2.01982619621223
| 26>   C   4.91888255089331     -2.00643769580932     -0.74687878187413
| 27>   C   5.50880009302373     -2.44497924404229      1.52941329099593
| 28>   H   4.21146979239343     -1.74375236039760      3.08908609431457
| 29>   C   5.80087485772640     -2.56213069499588      0.17052706960871
| 30>   H   5.09850338181445     -2.06916962082542     -1.81410102536078
| 31>   N   2.88940337920675     -0.79455834703081     -1.15934847249826
| 32>   N   1.98456270116809     -0.24248655825052     -1.54351133435927
| 33>   N   -6.50873213176370     -3.26424705616805     -0.78883002143431
| 34>   O   -5.90981959246469     -3.92559891760379     -1.62776318529264
| 35>   O   -7.63948496822229     -3.47335747315966     -0.36700504321592
| 36>   C   0.19112212984911      2.78935593439537     -0.10495781530663
| 37>   C   0.64543299814463      3.61086035477113      0.93175331113235
| 38>   C   0.15851762402790      3.25251457125382     -1.42046036330983
| 39>   C   1.07012397056614      4.90312707816070      0.63813121922789
| 40>   H   0.64780098089525      3.24405314542083      1.95273670321974
| 41>   C   0.58849006692636      4.55099963192784     -1.69610057180373
| 42>   H   -0.21459530231572      2.60951551638952     -2.21028119371884
| 43>   C   1.05115866388762      5.39489177469477     -0.67778365959182
| 44>   H   1.41846110264279      5.54498977884250      1.44311839267409
| 45>   H   0.55803517429315      4.91586025513877     -2.71908908708575
| 46>   C   1.50346414145182      6.80371080826139     -0.97500453869142
| 47>   H   2.50244018552232      6.99375296481758     -0.56842251307407
| 48>   H   1.53286170378629      6.99836379278800     -2.04982116602452
| 49>   H   0.82775616808706      7.53757243425456     -0.52088991724783
| 50>   H   6.69988675337490     -3.07845179189127     -0.14180529260537
| 51>   N   6.45792558451644     -3.04355142123389      2.50703691992133
| 52>   O   6.17519588768165     -2.92640892180738      3.69310378001609
| 53>   O   7.44420966398042     -3.60476007748609      2.04565769966924
| 54>
| 55> *
| 56> %pal nprocs 42 end
| 57>
| 58>                          ****END OF INPUT****
 Total Charge           Charge          ....    1
 Multiplicity           Mult            ....    1
 Number of Electrons    NEL             ....  242
FINAL SINGLE POINT ENERGY     -1985.687832401905
                    ***********************HURRAY********************

CARTESIAN COORDINATES (ANGSTROEM)
---------------------------------
  C     -3.816217   -0.722358   -0.167805
  C     -4.483856    0.040804    0.804278
  C     -5.783839   -0.221914    1.272499
  C     -6.443296   -1.320380    0.741553
  C     -5.789896   -2.089206   -0.223751
  C     -4.505304   -1.814031   -0.686841
  H     -2.812227   -0.439150   -0.489762
  H     -6.246387    0.409037    2.022966
  H     -7.444310   -1.589836    1.054554
  H     -4.061484   -2.450764   -1.442159
  N     -3.814512    1.134505    1.335827
  N     -3.184115    1.963280    1.739407
  S     -0.306900    1.112452    0.258631
  O     -0.949242    1.124960    1.606963
  O      0.969571    0.285988    0.315240
  O     -1.209730    0.682482   -0.840521
  H      2.575773   -0.714259    1.426925
  C      3.478246   -1.233298    1.120190
  C      3.780356   -1.355820   -0.248839
  C      4.375035   -1.797848    2.019724
  C      4.919107   -2.006020   -0.746906
  C      5.508487   -2.445115    1.529411
  H      4.210804   -1.744308    3.088960
  C      5.800898   -2.561916    0.170569
  H      5.098962   -2.068492   -1.814104
  N      2.889646   -0.794185   -1.159575
  N      1.984851   -0.242083   -1.543815
  N     -6.508360   -3.264757   -0.788113
  O     -5.909371   -3.926245   -1.626883
  O     -7.639007   -3.474018   -0.366078
  C      0.191105    2.789487   -0.105175
  C      0.645299    3.610911    0.931647
  C      0.158674    3.252698   -1.420667
  C      1.070068    4.903180    0.638145
  H      0.647527    3.244025    1.952600
  C      0.588732    4.551190   -1.696166
  H     -0.214327    2.609759   -2.210589
  C      1.051289    5.395012   -0.677738
  H      1.418332    5.544968    1.443219
  H      0.558441    4.916118   -2.719137
  C      1.503626    6.803849   -0.974832
  H      2.502207    6.994147   -0.567410
  H      1.533914    6.998305   -2.049660
  H      0.827387    7.537679   -0.521452
  H      6.699989   -3.078153   -0.141669
  N      6.457345   -3.043987    2.507104
  O      6.174144   -2.927475    3.693122
  O      7.443663   -3.605216    2.045816

 Multiplicity           Mult            ....    1
 Number of Electrons    NEL             ....  242
 Basis Dimension        Dim             ....  541

ORBITAL ENERGIES
----------------

  NO   OCC          E(Eh)            E(eV)
   0   2.0000     -89.183150     -2426.7969
   1   2.0000     -19.292577      -524.9777
   2   2.0000     -19.292489      -524.9753
   3   2.0000     -19.288305      -524.8615
   4   2.0000     -19.288222      -524.8592
   5   2.0000     -19.226995      -523.1931
   6   2.0000     -19.215721      -522.8864
   7   2.0000     -19.211922      -522.7830
   8   2.0000     -14.683345      -399.5541
   9   2.0000     -14.679099      -399.4386
  10   2.0000     -14.662665      -398.9914
  11   2.0000     -14.644435      -398.4953
  12   2.0000     -14.636446      -398.2779
  13   2.0000     -14.632233      -398.1633
  14   2.0000     -10.431318      -283.8506
  15   2.0000     -10.421754      -283.5903
  16   2.0000     -10.392448      -282.7929
  17   2.0000     -10.387098      -282.6473
  18   2.0000     -10.373973      -282.2902
  19   2.0000     -10.365920      -282.0710
  20   2.0000     -10.361147      -281.9411
  21   2.0000     -10.358917      -281.8804
  22   2.0000     -10.355356      -281.7836
  23   2.0000     -10.352214      -281.6981
  24   2.0000     -10.349831      -281.6332
  25   2.0000     -10.348210      -281.5891
  26   2.0000     -10.291362      -280.0422
  27   2.0000     -10.280331      -279.7420
  28   2.0000     -10.277473      -279.6643
  29   2.0000     -10.277373      -279.6615
  30   2.0000     -10.268592      -279.4226
  31   2.0000     -10.268371      -279.4166
  32   2.0000     -10.253244      -279.0050
  33   2.0000      -8.215519      -223.5556
  34   2.0000      -6.180152      -168.1705
  35   2.0000      -6.179820      -168.1615
  36   2.0000      -6.178277      -168.1195
  37   2.0000      -1.341010       -36.4907
  38   2.0000      -1.336720       -36.3740
  39   2.0000      -1.319907       -35.9165
  40   2.0000      -1.297470       -35.3060
  41   2.0000      -1.197962       -32.5982
  42   2.0000      -1.170708       -31.8566
  43   2.0000      -1.166333       -31.7375
  44   2.0000      -1.066684       -29.0259
  45   2.0000      -1.064164       -28.9574
  46   2.0000      -1.062001       -28.8985
  47   2.0000      -1.052311       -28.6348
  48   2.0000      -0.997617       -27.1465
  49   2.0000      -0.987056       -26.8592
  50   2.0000      -0.945267       -25.7220
  51   2.0000      -0.923438       -25.1280
  52   2.0000      -0.917867       -24.9764
  53   2.0000      -0.898674       -24.4542
  54   2.0000      -0.890809       -24.2401
  55   2.0000      -0.864011       -23.5109
  56   2.0000      -0.831813       -22.6348
  57   2.0000      -0.790143       -21.5009
  58   2.0000      -0.786497       -21.4017
  59   2.0000      -0.784116       -21.3369
  60   2.0000      -0.781030       -21.2529
  61   2.0000      -0.780030       -21.2257
  62   2.0000      -0.722206       -19.6522
  63   2.0000      -0.717397       -19.5214
  64   2.0000      -0.711973       -19.3738
  65   2.0000      -0.694283       -18.8924
  66   2.0000      -0.676146       -18.3989
  67   2.0000      -0.674109       -18.3434
  68   2.0000      -0.672747       -18.3064
  69   2.0000      -0.671655       -18.2767
  70   2.0000      -0.665451       -18.1079
  71   2.0000      -0.654954       -17.8222
  72   2.0000      -0.651860       -17.7380
  73   2.0000      -0.647024       -17.6064
  74   2.0000      -0.642682       -17.4883
  75   2.0000      -0.641710       -17.4618
  76   2.0000      -0.635464       -17.2919
  77   2.0000      -0.624171       -16.9845
  78   2.0000      -0.615586       -16.7510
  79   2.0000      -0.607876       -16.5412
  80   2.0000      -0.605141       -16.4667
  81   2.0000      -0.601400       -16.3649
  82   2.0000      -0.598276       -16.2799
  83   2.0000      -0.592863       -16.1326
  84   2.0000      -0.587504       -15.9868
  85   2.0000      -0.584515       -15.9055
  86   2.0000      -0.568620       -15.4729
  87   2.0000      -0.563115       -15.3231
  88   2.0000      -0.553606       -15.0644
  89   2.0000      -0.549458       -14.9515
  90   2.0000      -0.542934       -14.7740
  91   2.0000      -0.534941       -14.5565
  92   2.0000      -0.528278       -14.3752
  93   2.0000      -0.527979       -14.3670
  94   2.0000      -0.521568       -14.1926
  95   2.0000      -0.514009       -13.9869
  96   2.0000      -0.507655       -13.8140
  97   2.0000      -0.506019       -13.7695
  98   2.0000      -0.494725       -13.4621
  99   2.0000      -0.461778       -12.5656
 100   2.0000      -0.448036       -12.1917
 101   2.0000      -0.442760       -12.0481
 102   2.0000      -0.435595       -11.8531
 103   2.0000      -0.428722       -11.6661
 104   2.0000      -0.426587       -11.6080
 105   2.0000      -0.425196       -11.5702
 106   2.0000      -0.423214       -11.5162
 107   2.0000      -0.421678       -11.4744
 108   2.0000      -0.420702       -11.4479
 109   2.0000      -0.417902       -11.3717
 110   2.0000      -0.416086       -11.3223
 111   2.0000      -0.414373       -11.2757
 112   2.0000      -0.411694       -11.2028
 113   2.0000      -0.405276       -11.0281
 114   2.0000      -0.401034       -10.9127
 115   2.0000      -0.391891       -10.6639
 116   2.0000      -0.383753       -10.4424
 117   2.0000      -0.383611       -10.4386
 118   2.0000      -0.352943        -9.6041
 119   2.0000      -0.337548        -9.1852
 120   2.0000      -0.326653        -8.8887
 121   0.0000      -0.252962        -6.8834
 122   0.0000      -0.245478        -6.6798
 123   0.0000      -0.220951        -6.0124
 124   0.0000      -0.211264        -5.7488
 125   0.0000      -0.183462        -4.9923

MULLIKEN ATOMIC CHARGES
-----------------------
   0 C :   -0.020453
   1 C :    0.209549
   2 C :   -0.054534
   3 C :   -0.089865
   4 C :    0.252503
   5 C :   -0.106844
   6 H :    0.225303
   7 H :    0.173001
   8 H :    0.189547
   9 H :    0.187113
  10 N :    0.115372
  11 N :    0.031071
  12 S :    1.218664
  13 O :   -0.591073
  14 O :   -0.599234
  15 O :   -0.606871
  16 H :    0.209342
  17 C :   -0.032281
  18 C :    0.217312
  19 C :   -0.101489
  20 C :   -0.074525
  21 C :    0.248681
  22 H :    0.187148
  23 C :   -0.086269
  24 H :    0.169371
  25 N :    0.070186
  26 N :    0.042846
  27 N :    0.402185
  28 O :   -0.339887
  29 O :   -0.339206
  30 C :   -0.200250
  31 C :   -0.082645
  32 C :   -0.088760
  33 C :   -0.112632
  34 H :    0.124432
  35 C :   -0.117349
  36 H :    0.124035
  37 C :    0.122798
  38 H :    0.101940
  39 H :    0.100755
  40 C :   -0.377339
  41 H :    0.132021
  42 H :    0.121559
  43 H :    0.137807
  44 H :    0.186715
  45 N :    0.402137
  46 O :   -0.341151
  47 O :   -0.340736
Sum of atomic charges:    1.0000000

LOEWDIN ATOMIC CHARGES
----------------------
   0 C :    0.004789
   1 C :   -0.014361
   2 C :   -0.014270
   3 C :   -0.024396
   4 C :    0.049259
   5 C :   -0.022878
   6 H :    0.128354
   7 H :    0.111977
   8 H :    0.121139
   9 H :    0.120094
  10 N :    0.248730
  11 N :    0.219230
  12 S :    1.242291
  13 O :   -0.592286
  14 O :   -0.590633
  15 O :   -0.620705
  16 H :    0.124715
  17 C :   -0.001334
  18 C :   -0.009200
  19 C :   -0.024233
  20 C :   -0.015577
  21 C :    0.046241
  22 H :    0.119871
  23 C :   -0.025389
  24 H :    0.110991
  25 N :    0.201364
  26 N :    0.201298
  27 N :    0.257093
  28 O :   -0.173275
  29 O :   -0.172830
  30 C :   -0.196778
  31 C :   -0.054306
  32 C :   -0.058995
  33 C :   -0.067813
  34 H :    0.090620
  35 C :   -0.072189
  36 H :    0.090063
  37 C :    0.009129
  38 H :    0.081134
  39 H :    0.080205
  40 C :   -0.193536
  41 H :    0.087283
  42 H :    0.081283
  43 H :    0.090168
  44 H :    0.119574
  45 N :    0.257149
  46 O :   -0.174473
  47 O :   -0.174587

  Mayer bond orders larger than 0.1
B(  0-C ,  1-C ) :   1.3359 B(  0-C ,  5-C ) :   1.4139 B(  0-C ,  6-H ) :   0.8452
B(  1-C ,  2-C ) :   1.3065 B(  1-C , 10-N ) :   0.8364 B(  2-C ,  3-C ) :   1.4480
B(  2-C ,  7-H ) :   0.9235 B(  3-C ,  4-C ) :   1.3924 B(  3-C ,  8-H ) :   0.9037
B(  4-C ,  5-C ) :   1.4045 B(  4-C , 27-N ) :   0.7968 B(  5-C ,  9-H ) :   0.9055
B( 10-N , 11-N ) :   2.4817 B( 12-S , 13-O ) :   1.4915 B( 12-S , 14-O ) :   1.3443
B( 12-S , 15-O ) :   1.5257 B( 12-S , 30-C ) :   0.8188 B( 14-O , 26-N ) :   0.1990
B( 16-H , 17-C ) :   0.8813 B( 17-C , 18-C ) :   1.3415 B( 17-C , 19-C ) :   1.4130
B( 18-C , 20-C ) :   1.3267 B( 18-C , 25-N ) :   0.8609 B( 19-C , 21-C ) :   1.4021
B( 19-C , 22-H ) :   0.9050 B( 20-C , 23-C ) :   1.4337 B( 20-C , 24-H ) :   0.9251
B( 21-C , 23-C ) :   1.4006 B( 21-C , 45-N ) :   0.7987 B( 23-C , 44-H ) :   0.9055
B( 25-N , 26-N ) :   2.3705 B( 27-N , 28-O ) :   1.5452 B( 27-N , 29-O ) :   1.5437
B( 28-O , 29-O ) :   0.2935 B( 30-C , 31-C ) :   1.3867 B( 30-C , 32-C ) :   1.4109
B( 31-C , 33-C ) :   1.4491 B( 31-C , 34-H ) :   0.9310 B( 32-C , 35-C ) :   1.4221
B( 32-C , 36-H ) :   0.9298 B( 33-C , 37-C ) :   1.4117 B( 33-C , 38-H ) :   0.9400
B( 35-C , 37-C ) :   1.4455 B( 35-C , 39-H ) :   0.9367 B( 37-C , 40-C ) :   0.9995
B( 40-C , 41-H ) :   0.9510 B( 40-C , 42-H ) :   0.9595 B( 40-C , 43-H ) :   0.9474
B( 45-N , 46-O ) :   1.5447 B( 45-N , 47-O ) :   1.5437 B( 46-O , 47-O ) :   0.2926

FINAL SINGLE POINT ENERGY     -1985.687832505638

DIPOLE MOMENT
-------------
                                X             Y             Z
Electronic contribution:     -6.37659     -24.21823       4.55160
Nuclear contribution   :      5.72611      24.96319      -5.07931
                        -----------------------------------------
Total Dipole Moment    :     -0.65048       0.74495      -0.52771
                        -----------------------------------------
Magnitude (a.u.)       :      1.12096
Magnitude (Debye)      :      2.84926

VIBRATIONAL FREQUENCIES
-----------------------

Scaling factor for frequencies =  1.000000000 (already applied!)

   0:         0.00 cm**-1
   1:         0.00 cm**-1
   2:         0.00 cm**-1
   3:         0.00 cm**-1
   4:         0.00 cm**-1
   5:         0.00 cm**-1
   6:         1.29 cm**-1
   7:         5.28 cm**-1
   8:         7.86 cm**-1
   9:        15.20 cm**-1
  10:        16.81 cm**-1
  11:        23.66 cm**-1
  12:        30.40 cm**-1
  13:        32.15 cm**-1
  14:        35.33 cm**-1
  15:        36.01 cm**-1
  16:        57.82 cm**-1
  17:        60.77 cm**-1
  18:        67.94 cm**-1
  19:        79.71 cm**-1
  20:        88.01 cm**-1
  21:        91.75 cm**-1
  22:        95.37 cm**-1
  23:       110.34 cm**-1
  24:       156.15 cm**-1
  25:       171.07 cm**-1
  26:       187.16 cm**-1
  27:       205.45 cm**-1
  28:       224.42 cm**-1
  29:       229.94 cm**-1
  30:       233.80 cm**-1
  31:       267.85 cm**-1
  32:       280.63 cm**-1
  33:       286.99 cm**-1
  34:       322.14 cm**-1
  35:       333.33 cm**-1
  36:       338.22 cm**-1
  37:       362.11 cm**-1
  38:       396.09 cm**-1
  39:       412.90 cm**-1
  40:       415.43 cm**-1
  41:       416.12 cm**-1
  42:       433.56 cm**-1
  43:       434.89 cm**-1
  44:       481.48 cm**-1
  45:       487.82 cm**-1
  46:       494.38 cm**-1
  47:       533.79 cm**-1
  48:       540.00 cm**-1
  49:       541.90 cm**-1
  50:       553.37 cm**-1
  51:       555.26 cm**-1
  52:       557.58 cm**-1
  53:       561.75 cm**-1
  54:       576.09 cm**-1
  55:       581.70 cm**-1
  56:       639.61 cm**-1
  57:       641.90 cm**-1
  58:       647.72 cm**-1
  59:       667.07 cm**-1
  60:       671.65 cm**-1
  61:       673.46 cm**-1
  62:       714.13 cm**-1
  63:       755.80 cm**-1
  64:       757.14 cm**-1
  65:       777.91 cm**-1
  66:       781.26 cm**-1
  67:       815.42 cm**-1
  68:       833.14 cm**-1
  69:       853.32 cm**-1
  70:       854.43 cm**-1
  71:       860.56 cm**-1
  72:       866.94 cm**-1
  73:       867.78 cm**-1
  74:       898.88 cm**-1
  75:       913.29 cm**-1
  76:       971.95 cm**-1
  77:       974.74 cm**-1
  78:       983.47 cm**-1
  79:       997.27 cm**-1
  80:       999.80 cm**-1
  81:      1013.26 cm**-1
  82:      1018.82 cm**-1
  83:      1025.13 cm**-1
  84:      1026.61 cm**-1
  85:      1037.62 cm**-1
  86:      1041.98 cm**-1
  87:      1065.57 cm**-1
  88:      1092.26 cm**-1
  89:      1113.88 cm**-1
  90:      1116.17 cm**-1
  91:      1128.09 cm**-1
  92:      1129.41 cm**-1
  93:      1131.81 cm**-1
  94:      1140.44 cm**-1
  95:      1144.13 cm**-1
  96:      1146.00 cm**-1
  97:      1191.76 cm**-1
  98:      1204.00 cm**-1
  99:      1209.84 cm**-1
 100:      1211.34 cm**-1
 101:      1236.32 cm**-1
 102:      1322.17 cm**-1
 103:      1330.55 cm**-1
 104:      1333.26 cm**-1
 105:      1349.89 cm**-1
 106:      1376.46 cm**-1
 107:      1379.33 cm**-1
 108:      1393.62 cm**-1
 109:      1394.39 cm**-1
 110:      1428.56 cm**-1
 111:      1439.75 cm**-1
 112:      1449.60 cm**-1
 113:      1452.84 cm**-1
 114:      1497.25 cm**-1
 115:      1504.41 cm**-1
 116:      1505.29 cm**-1
 117:      1506.18 cm**-1
 118:      1536.73 cm**-1
 119:      1617.26 cm**-1
 120:      1618.16 cm**-1
 121:      1624.54 cm**-1
 122:      1629.23 cm**-1
 123:      1632.15 cm**-1
 124:      1653.84 cm**-1
 125:      1684.97 cm**-1
 126:      1685.07 cm**-1
 127:      2238.25 cm**-1
 128:      2332.58 cm**-1
 129:      3048.89 cm**-1
 130:      3106.18 cm**-1
 131:      3120.09 cm**-1
 132:      3137.75 cm**-1
 133:      3187.56 cm**-1
 134:      3191.05 cm**-1
 135:      3218.49 cm**-1
 136:      3221.29 cm**-1
 137:      3221.46 cm**-1
 138:      3233.52 cm**-1
 139:      3234.40 cm**-1
 140:      3250.81 cm**-1
 141:      3251.52 cm**-1
 142:      3253.98 cm**-1
 143:      3255.49 cm**-1

IR SPECTRUM
-----------

 Mode    freq (cm**-1)   T**2         TX         TY         TZ
-------------------------------------------------------------------
   6:         1.29    0.000000  (  0.000000   0.000000   0.000000)
   7:         5.28    0.875647  (  0.727320   0.418344  -0.414295)
   8:         7.86    0.992377  (  0.719778   0.682205   0.094300)
   9:        15.20    1.717274  ( -0.882640  -0.951510  -0.181246)
  10:        16.81    3.577288  ( -0.697761   1.075160  -1.390844)
  11:        23.66   11.752167  ( -2.390322   1.769566   1.705040)
  12:        30.40    1.133323  ( -1.035371   0.190948  -0.157696)
  13:        32.15    0.505153  ( -0.410013   0.292260   0.501623)
  14:        35.33    0.786178  ( -0.149986   0.738471  -0.467272)
  15:        36.01    1.560544  ( -0.167985  -1.117101  -0.533300)
  16:        57.82    2.164054  (  0.210840   0.909610  -1.136754)
  17:        60.77    0.313419  (  0.288159  -0.476463   0.058017)
  18:        67.94    5.643400  ( -0.667573   1.854135  -1.326624)
  19:        79.71   13.575557  (  3.202676  -1.350296  -1.222754)
  20:        88.01   26.393279  ( -5.045017   0.581737  -0.776313)
  21:        91.75   29.765561  ( -4.905388   2.381729   0.173485)
  22:        95.37    4.081244  ( -1.874201   0.074269   0.750399)
  23:       110.34    9.338039  (  1.168849   2.708561   0.797201)
  24:       156.15   37.009476  ( -5.382855   2.092419   1.912101)
  25:       171.07    5.048232  ( -2.145874   0.196542  -0.636261)
  26:       187.16   95.779383  ( -9.602971  -1.408899   1.255921)
  27:       205.45  286.270903  ( 15.481982  -6.686624  -1.366821)
  28:       224.42   59.420126  ( -6.845097   3.488227   0.630116)
  29:       229.94   23.246975  ( -4.760024   0.748665  -0.169250)
  30:       233.80    1.755585  ( -1.221786  -0.512643   0.004613)
  31:       267.85   29.183457  (  5.284004   0.509555  -1.001556)
  32:       280.63   64.797715  (  6.299378  -4.978588  -0.573772)
  33:       286.99    9.630506  (  2.739725   1.297584  -0.663846)
  34:       322.14   13.232931  ( -2.650632   2.489822  -0.088680)
  35:       333.33   11.638517  (  2.234436   2.499801   0.629930)
  36:       338.22    4.320144  (  1.217255  -1.126173   1.253063)
  37:       362.11   13.145990  ( -3.465975   0.823410   0.674538)
  38:       396.09   13.195835  (  1.950677  -2.532982  -1.724731)
  39:       412.90    0.275293  (  0.357090   0.169414   0.345077)
  40:       415.43    0.030624  (  0.003544   0.156826   0.077573)
  41:       416.12    0.425252  ( -0.570606   0.315501   0.010953)
  42:       433.56    3.984866  ( -1.880105  -0.568605   0.356030)
  43:       434.89    0.160887  ( -0.066080   0.360070   0.163920)
  44:       481.48    7.504500  (  1.498854  -2.286950  -0.166717)
  45:       487.82  115.286010  ( -9.765106   4.410654   0.689087)
  46:       494.38   16.802814  (  1.442754   3.744330  -0.837419)
  47:       533.79   35.193591  ( -2.844442   4.424551   2.743372)
  48:       540.00    8.669285  (  2.581175  -0.487453  -1.330117)
  49:       541.90   38.653457  (  1.560305  -6.018194   0.015628)
  50:       553.37    4.523833  ( -1.826541  -1.084289  -0.109086)
  51:       555.26   67.336672  (  8.179443  -0.647295   0.119939)
  52:       557.58   52.035041  (  6.747762   1.370623  -2.150382)
  53:       561.75   51.616075  ( -1.107394  -6.749169   2.199653)
  54:       576.09    0.548983  (  0.559811   0.467265  -0.131369)
  55:       581.70    2.442629  ( -1.043684   0.813929   0.831187)
  56:       639.61   13.483107  ( -3.380129   1.360450   0.454987)
  57:       641.90    1.116463  ( -0.415060  -0.970548   0.047166)
  58:       647.72    0.647175  ( -0.178336   0.596497  -0.509473)
  59:       667.07   84.101147  (  3.234724   8.512941  -1.080533)
  60:       671.65   37.187972  (  0.075418   5.108437  -3.329589)
  61:       673.46   22.666310  (  2.030775   4.302278  -0.180731)
  62:       714.13    4.559314  (  2.037003   0.589087  -0.250819)
  63:       755.80   19.485716  ( -2.127438   2.342199  -3.077959)
  64:       757.14   17.980947  ( -2.117468  -3.670805  -0.149897)
  65:       777.91   31.762034  ( -3.948858  -3.644744  -1.698351)
  66:       781.26   34.718785  (  4.616318  -2.901001   2.234409)
  67:       815.42    1.333487  ( -1.087295  -0.045567   0.386265)
  68:       833.14   21.391378  ( -4.239045   1.824379   0.305805)
  69:       853.32    6.974468  ( -1.124247   1.578976  -1.793703)
  70:       854.43    3.323277  ( -0.903167  -1.578143  -0.130506)
  71:       860.56    0.702825  (  0.679874  -0.460611  -0.168626)
  72:       866.94   48.301644  (  3.955351   5.190996   2.389644)
  73:       867.78   57.971284  ( -5.142002   3.768968  -4.162449)
  74:       898.88   32.972625  (  2.690471   5.063839   0.302544)
  75:       913.29   26.935875  (  2.123139  -2.755259   3.851844)
  76:       971.95  385.589070  ( -6.082682  18.539536  -2.208089)
  77:       974.74   26.005545  (  1.900558  -4.719636   0.344174)
  78:       983.47    0.231958  (  0.231082  -0.160186  -0.391024)
  79:       997.27    0.526858  ( -0.107143   0.372125  -0.613922)
  80:       999.80    0.553735  ( -0.348114  -0.652018   0.086163)
  81:      1013.26    5.508069  (  0.025901  -2.340858  -0.166686)
  82:      1018.82    0.170495  (  0.359378  -0.192900   0.064286)
  83:      1025.13    7.499133  ( -2.700105  -0.454053   0.049014)
  84:      1026.61   18.668905  ( -4.039555   1.376494  -0.675402)
  85:      1037.62   31.085228  (  4.674781  -3.029987  -0.225440)
  86:      1041.98    5.474324  (  1.266077  -1.872535   0.604139)
  87:      1065.57    4.797300  ( -1.368530   1.701505   0.171187)
  88:      1092.26  1142.668921  (-32.847446   7.178039   3.491417)
  89:      1113.88   50.038336  (  3.434483   5.224548   3.308589)
  90:      1116.17   29.968721  (  3.427893  -2.478398   3.475027)
  91:      1128.09    9.419794  ( -0.069934   3.068371  -0.001233)
  92:      1129.41  215.962192  ( 11.814628   8.100330  -3.280459)
  93:      1131.81   97.835985  (  8.869708   3.585007  -2.512368)
  94:      1140.44   32.456977  (  2.736747   2.349129   4.410077)
  95:      1144.13   35.279115  ( -1.129347   5.482359   1.986815)
  96:      1146.00   39.302469  ( -2.409447   3.124787  -4.871626)
  97:      1191.76   96.919844  (  4.733591  -0.036163   8.632013)
  98:      1204.00    0.939674  ( -0.645886  -0.332390  -0.641890)
  99:      1209.84    8.870247  ( -0.251464  -0.288867   2.953569)
 100:      1211.34    2.563941  ( -0.672416  -1.182150  -0.845174)
 101:      1236.32    2.279881  (  0.278181  -1.468953   0.211358)
 102:      1322.17   12.242035  ( -2.855618   1.894368   0.706295)
 103:      1330.55   19.673220  (  4.000315   1.123653  -1.551806)
 104:      1333.26    0.854783  ( -0.309487  -0.310671  -0.813931)
 105:      1349.89    2.015831  (  0.502054   1.326366   0.067266)
 106:      1376.46   61.834429  (  5.341442  -2.633581  -5.134946)
 107:      1379.33   46.151000  (  5.506021  -1.622948  -3.633286)
 108:      1393.62  244.021756  (-10.450447  -8.868176  -7.494356)
 109:      1394.39  186.255102  (  7.096208  -9.258266   7.084028)
 110:      1428.56    0.494074  (  0.158463   0.524928   0.439789)
 111:      1439.75    6.741295  ( -0.384205  -0.040141  -2.567503)
 112:      1449.60    4.773788  ( -0.602732   0.516350  -2.035653)
 113:      1452.84    7.836002  (  1.927519  -0.706686  -1.902963)
 114:      1497.25    8.522537  ( -2.752579   0.971457   0.046030)
 115:      1504.41   11.595124  ( -2.727028   1.719200  -1.096718)
 116:      1505.29   11.192979  ( -0.919859  -1.141374  -3.007342)
 117:      1506.18    9.539035  ( -2.481731  -1.790216   0.418534)
 118:      1536.73   10.771501  ( -0.869336  -3.125066   0.499717)
 119:      1617.26   47.092610  ( -4.589965   2.348274   4.528845)
 120:      1618.16   30.583621  (  0.573862  -0.219197  -5.496022)
 121:      1624.54    0.639312  ( -0.013602  -0.538375  -0.590999)
 122:      1629.23   46.287864  ( -4.213283  -5.041271  -1.766831)
 123:      1632.15   24.692113  (  3.636205  -2.534153   2.246818)
 124:      1653.84   19.092248  ( -1.573451  -3.957318   0.977823)
 125:      1684.97  289.375116  (-12.164105   4.435005  11.033603)
 126:      1685.07   12.048317  (  0.048974  -1.548399  -3.106184)
 127:      2238.25  362.729678  (-13.947147   7.050021  10.885952)
 128:      2332.58  163.624943  ( 10.069657  -6.381816  -4.636743)
 129:      3048.89   17.834136  (  1.053569   4.043480  -0.611878)
 130:      3106.18   11.615084  ( -3.343094   0.464471   0.472306)
 131:      3120.09  394.067812  (-18.174566  -7.709331   2.078265)
 132:      3137.75   13.040827  (  0.266047  -0.829193   3.504638)
 133:      3187.56    9.465468  (  0.946624   2.058766   2.081071)
 134:      3191.05   10.685457  ( -0.076137  -2.153584   2.457995)
 135:      3218.49    1.378055  ( -0.398278  -0.370976  -1.040100)
 136:      3221.29   32.953794  ( -4.460924   3.445630  -1.087008)
 137:      3221.46   32.352837  (  5.094499  -2.526746  -0.120310)
 138:      3233.52    2.767510  (  0.129197  -0.072939  -1.656954)
 139:      3234.40    6.684793  (  0.178795  -1.863835  -1.782960)
 140:      3250.81   13.343443  ( -0.830328   0.299770   3.544592)
 141:      3251.52   16.420706  (  1.837071  -2.222685  -2.847024)
 142:      3253.98   19.484800  (  4.041599   1.621888  -0.720940)
 143:      3255.49   16.428091  ( -3.469103   2.065496   0.356566)

--------------------------
THERMOCHEMISTRY AT 623.15K
--------------------------

Temperature         ... 623.15 K
Pressure            ... 1.00 atm
Total Mass          ... 471.42 AMU

Throughout the following assumptions are being made:
  (1) The electronic state is orbitally nondegenerate
  (2) There are no thermally accessible electronically excited states
  (3) Hindered rotations indicated by low frequency modes are not
      treated as such but are treated as vibrations and this may
      cause some error
  (4) All equations used are the standard statistical mechanics
      equations for an ideal gas
  (5) All vibrations are strictly harmonic

freq.       1.29  E(vib)   ...       1.24
freq.       5.28  E(vib)   ...       1.23
freq.       7.86  E(vib)   ...       1.23
freq.      15.20  E(vib)   ...       1.22
freq.      16.81  E(vib)   ...       1.21
freq.      23.66  E(vib)   ...       1.20
freq.      30.40  E(vib)   ...       1.20
freq.      32.15  E(vib)   ...       1.19
freq.      35.33  E(vib)   ...       1.19
freq.      36.01  E(vib)   ...       1.19
freq.      57.82  E(vib)   ...       1.16
freq.      60.77  E(vib)   ...       1.15
freq.      67.94  E(vib)   ...       1.14
freq.      79.71  E(vib)   ...       1.13
freq.      88.01  E(vib)   ...       1.12
freq.      91.75  E(vib)   ...       1.11
freq.      95.37  E(vib)   ...       1.11
freq.     110.34  E(vib)   ...       1.09
freq.     156.15  E(vib)   ...       1.03
freq.     171.07  E(vib)   ...       1.01
freq.     187.16  E(vib)   ...       0.99
freq.     205.45  E(vib)   ...       0.97
freq.     224.42  E(vib)   ...       0.95
freq.     229.94  E(vib)   ...       0.94
freq.     233.80  E(vib)   ...       0.93
freq.     267.85  E(vib)   ...       0.89
freq.     280.63  E(vib)   ...       0.88
freq.     286.99  E(vib)   ...       0.87
freq.     322.14  E(vib)   ...       0.83
freq.     333.33  E(vib)   ...       0.82
freq.     338.22  E(vib)   ...       0.82
freq.     362.11  E(vib)   ...       0.79
freq.     396.09  E(vib)   ...       0.76
freq.     412.90  E(vib)   ...       0.74
freq.     415.43  E(vib)   ...       0.74
freq.     416.12  E(vib)   ...       0.74
freq.     433.56  E(vib)   ...       0.72
freq.     434.89  E(vib)   ...       0.72
freq.     481.48  E(vib)   ...       0.68
freq.     487.82  E(vib)   ...       0.67
freq.     494.38  E(vib)   ...       0.66
freq.     533.79  E(vib)   ...       0.63
freq.     540.00  E(vib)   ...       0.62
freq.     541.90  E(vib)   ...       0.62
freq.     553.37  E(vib)   ...       0.61
freq.     555.26  E(vib)   ...       0.61
freq.     557.58  E(vib)   ...       0.61
freq.     561.75  E(vib)   ...       0.60
freq.     576.09  E(vib)   ...       0.59
freq.     581.70  E(vib)   ...       0.59
freq.     639.61  E(vib)   ...       0.54
freq.     641.90  E(vib)   ...       0.54
freq.     647.72  E(vib)   ...       0.54
freq.     667.07  E(vib)   ...       0.52
freq.     671.65  E(vib)   ...       0.52
freq.     673.46  E(vib)   ...       0.52
freq.     714.13  E(vib)   ...       0.49
freq.     755.80  E(vib)   ...       0.46
freq.     757.14  E(vib)   ...       0.46
freq.     777.91  E(vib)   ...       0.44
freq.     781.26  E(vib)   ...       0.44
freq.     815.42  E(vib)   ...       0.42
freq.     833.14  E(vib)   ...       0.41
freq.     853.32  E(vib)   ...       0.40
freq.     854.43  E(vib)   ...       0.39
freq.     860.56  E(vib)   ...       0.39
freq.     866.94  E(vib)   ...       0.39
freq.     867.78  E(vib)   ...       0.39
freq.     898.88  E(vib)   ...       0.37
freq.     913.29  E(vib)   ...       0.36
freq.     971.95  E(vib)   ...       0.33
freq.     974.74  E(vib)   ...       0.33
freq.     983.47  E(vib)   ...       0.32
freq.     997.27  E(vib)   ...       0.32
freq.     999.80  E(vib)   ...       0.32
freq.    1013.26  E(vib)   ...       0.31
freq.    1018.82  E(vib)   ...       0.31
freq.    1025.13  E(vib)   ...       0.30
freq.    1026.61  E(vib)   ...       0.30
freq.    1037.62  E(vib)   ...       0.30
freq.    1041.98  E(vib)   ...       0.30
freq.    1065.57  E(vib)   ...       0.28
freq.    1092.26  E(vib)   ...       0.27
freq.    1113.88  E(vib)   ...       0.26
freq.    1116.17  E(vib)   ...       0.26
freq.    1128.09  E(vib)   ...       0.26
freq.    1129.41  E(vib)   ...       0.26
freq.    1131.81  E(vib)   ...       0.26
freq.    1140.44  E(vib)   ...       0.25
freq.    1144.13  E(vib)   ...       0.25
freq.    1146.00  E(vib)   ...       0.25
freq.    1191.76  E(vib)   ...       0.23
freq.    1204.00  E(vib)   ...       0.23
freq.    1209.84  E(vib)   ...       0.23
freq.    1211.34  E(vib)   ...       0.23
freq.    1236.32  E(vib)   ...       0.22
freq.    1322.17  E(vib)   ...       0.19
freq.    1330.55  E(vib)   ...       0.18
freq.    1333.26  E(vib)   ...       0.18
freq.    1349.89  E(vib)   ...       0.18
freq.    1376.46  E(vib)   ...       0.17
freq.    1379.33  E(vib)   ...       0.17
freq.    1393.62  E(vib)   ...       0.17
freq.    1394.39  E(vib)   ...       0.17
freq.    1428.56  E(vib)   ...       0.16
freq.    1439.75  E(vib)   ...       0.15
freq.    1449.60  E(vib)   ...       0.15
freq.    1452.84  E(vib)   ...       0.15
freq.    1497.25  E(vib)   ...       0.14
freq.    1504.41  E(vib)   ...       0.14
freq.    1505.29  E(vib)   ...       0.14
freq.    1506.18  E(vib)   ...       0.14
freq.    1536.73  E(vib)   ...       0.13
freq.    1617.26  E(vib)   ...       0.11
freq.    1618.16  E(vib)   ...       0.11
freq.    1624.54  E(vib)   ...       0.11
freq.    1629.23  E(vib)   ...       0.11
freq.    1632.15  E(vib)   ...       0.11
freq.    1653.84  E(vib)   ...       0.11
freq.    1684.97  E(vib)   ...       0.10
freq.    1685.07  E(vib)   ...       0.10
freq.    2238.25  E(vib)   ...       0.04
freq.    2332.58  E(vib)   ...       0.03
freq.    3048.89  E(vib)   ...       0.01
freq.    3106.18  E(vib)   ...       0.01
freq.    3120.09  E(vib)   ...       0.01
freq.    3137.75  E(vib)   ...       0.01
freq.    3187.56  E(vib)   ...       0.01
freq.    3191.05  E(vib)   ...       0.01
freq.    3218.49  E(vib)   ...       0.01
freq.    3221.29  E(vib)   ...       0.01
freq.    3221.46  E(vib)   ...       0.01
freq.    3233.52  E(vib)   ...       0.01
freq.    3234.40  E(vib)   ...       0.01
freq.    3250.81  E(vib)   ...       0.01
freq.    3251.52  E(vib)   ...       0.01
freq.    3253.98  E(vib)   ...       0.01
freq.    3255.49  E(vib)   ...       0.01

------------
INNER ENERGY
------------

The inner energy is: U= E(el) + E(ZPE) + E(vib) + E(rot) + E(trans)

Rotational constants in cm-1:     0.003818     0.001797     0.001354

                             ****ORCA TERMINATED NORMALLY****
TOTAL RUN TIME: 0 days 3 hours 4 minutes 24 seconds 14 msec
