                         Program Version 4.1.0  - RELEASE  -
|  1> ! B3LYP/G aug-cc-pVDZ TightSCF TightOpt NumFreq Grid7
|  2> %geom MaxIter 2000 TolE 1e-8 TolRMSG 5e-7 TolMaxG 1e-6 Convergence tight end
|  3> %scf MaxIter 2000 end
|  4> %freq Temp 298.15, 323.15, 373.15, 423.15, 473.15, 523.15, 573.15, 623.15 end
|  5> * xyz 1 1
|  6> C          -3.88210        -0.56990        -0.44900
|  7> C          -3.95430        -0.28450         0.92300
|  8> C          -5.11240        -0.45280         1.70780
|  9> C          -6.24920        -0.93360         1.07760
| 10> C          -6.18550        -1.22260        -0.28660
| 11> C          -5.03730        -1.05150        -1.05540
| 12> H          -2.95790        -0.39080        -0.98780
| 13> H          -5.11050        -0.21450         2.76530
| 14> H          -7.17580        -1.08770         1.61630
| 15> H          -5.05920        -1.29100        -2.11130
| 16> N          -2.82750         0.18610         1.58860
| 17> N          -1.99060         0.54660         2.23150
| 18> S           0.04850         1.00200        -0.27300
| 19> O           0.28750         0.39610         1.07320
| 20> O           1.15690         0.77310        -1.22490
| 21> O          -1.32440         0.77970        -0.77980
| 22> C           0.10530         2.83170         0.05470
| 23> F           1.34200         3.17070         0.47480
| 24> F          -0.77260         3.15570         1.01350
| 25> F          -0.17350         3.52390        -1.04690
| 26> H           2.32060        -0.17310         0.86680
| 27> C           3.31570        -0.56400         0.66000
| 28> C           4.19640         0.09930        -0.21550
| 29> C           3.77600        -1.74600         1.23160
| 30> C           5.48560        -0.35330        -0.53940
| 31> C           5.04990        -2.23950         0.93730
| 32> H           3.12980        -2.28930         1.91140
| 33> C           5.87730        -1.53580         0.05970
| 34> H           6.14910         0.17210        -1.21590
| 35> N           3.79130         1.28950        -0.79460
| 36> N           3.47750         2.25060        -1.25540
| 37> N          -7.41410        -1.73980        -0.95180
| 38> O          -7.32950        -1.99000        -2.14710
| 39> O          -8.40650        -1.87280        -0.24620
| 40> H           6.84980        -1.92610        -0.15690
| 41> N           5.54940        -3.48850         1.53020
| 42> O           6.65220        -3.85780         1.23730
| 43> O           4.83410        -4.08830         2.28320
| 44>
| 45> *
| 46> %pal nprocs 42 end
| 47>
| 48>                          ****END OF INPUT****
 Total Charge           Charge          ....    1
 Multiplicity           Mult            ....    1
 Number of Electrons    NEL             ....  226
FINAL SINGLE POINT ENERGY     -2052.587321300981
FINAL SINGLE POINT ENERGY     -2052.593564961681
FINAL SINGLE POINT ENERGY     -2052.594425193268
FINAL SINGLE POINT ENERGY     -2052.593041625012
FINAL SINGLE POINT ENERGY     -2052.594593722324
FINAL SINGLE POINT ENERGY     -2052.592901113109
FINAL SINGLE POINT ENERGY     -2052.594724266864
FINAL SINGLE POINT ENERGY     -2052.594447195032
FINAL SINGLE POINT ENERGY     -2052.594774434183
FINAL SINGLE POINT ENERGY     -2052.594801480236
FINAL SINGLE POINT ENERGY     -2052.595448381961
FINAL SINGLE POINT ENERGY     -2052.595448231433
FINAL SINGLE POINT ENERGY     -2052.595447453903
FINAL SINGLE POINT ENERGY     -2052.595447116470
FINAL SINGLE POINT ENERGY     -2052.595444993126
FINAL SINGLE POINT ENERGY     -2052.595445617407
FINAL SINGLE POINT ENERGY     -2052.595446397623
FINAL SINGLE POINT ENERGY     -2052.595445038952
FINAL SINGLE POINT ENERGY     -2052.595445722559
                    ***********************HURRAY********************

CARTESIAN COORDINATES (ANGSTROEM)
---------------------------------
  C     -4.154344   -0.307061   -0.476691
  C     -4.150640   -0.568081    0.902023
  C     -5.281268   -0.969359    1.641516
  C     -6.476912   -1.117379    0.950659
  C     -6.492257   -0.863065   -0.424038
  C     -5.366808   -0.464725   -1.145060
  H     -3.238719    0.013057   -0.971550
  H     -5.217455   -1.155993    2.711821
  H     -7.389735   -1.423732    1.456026
  H     -5.446227   -0.279145   -2.213605
  N     -2.960818   -0.436051    1.623666
  N     -2.076252   -0.379022    2.296139
  S      0.001420    0.780837   -0.083239
  O      0.265658   -0.138975    1.082545
  O      1.068822    0.721690   -1.139380
  O     -1.416171    0.751728   -0.571839
  C      0.185089    2.516511    0.647722
  F      1.427332    2.673817    1.140011
  F     -0.699815    2.683959    1.647489
  F     -0.032845    3.446995   -0.287532
  H      2.408930   -0.444368    0.373073
  C      3.461443   -0.717669    0.302283
  C      4.240615   -0.351187   -0.807039
  C      4.100576   -1.446245    1.303163
  C      5.604884   -0.667625   -0.967627
  C      5.449758   -1.766647    1.156085
  H      3.558998   -1.762499    2.191423
  C      6.214785   -1.394105    0.046210
  H      6.156172   -0.353413   -1.851777
  N      3.650335    0.379109   -1.838433
  N      3.236918    0.960658   -2.688743
  N     -7.784497   -1.027435   -1.156066
  O     -7.769814   -0.805110   -2.357656
  O     -8.752686   -1.372217   -0.493571
  H      7.264130   -1.673866   -0.008795
  N      6.116957   -2.550243    2.239657
  O      7.302153   -2.806803    2.083797
  O      5.424290   -2.872438    3.193631

 Multiplicity           Mult            ....    1
 Number of Electrons    NEL             ....  226
 Basis Dimension        Dim             ....  766

ORBITAL ENERGIES
----------------

  NO   OCC          E(Eh)            E(eV)
   0   2.0000     -89.223903     -2427.9058
   1   2.0000     -24.849110      -676.1787
   2   2.0000     -24.848889      -676.1726
   3   2.0000     -24.846558      -676.1092
   4   2.0000     -19.308961      -525.4236
   5   2.0000     -19.308910      -525.4222
   6   2.0000     -19.305804      -525.3376
   7   2.0000     -19.305760      -525.3364
   8   2.0000     -19.241707      -523.5935
   9   2.0000     -19.241392      -523.5849
  10   2.0000     -19.241065      -523.5760
  11   2.0000     -14.697390      -399.9363
  12   2.0000     -14.694271      -399.8514
  13   2.0000     -14.690990      -399.7622
  14   2.0000     -14.681794      -399.5119
  15   2.0000     -14.659272      -398.8991
  16   2.0000     -14.653151      -398.7325
  17   2.0000     -10.546028      -286.9720
  18   2.0000     -10.450824      -284.3814
  19   2.0000     -10.446908      -284.2748
  20   2.0000     -10.410915      -283.2954
  21   2.0000     -10.407485      -283.2021
  22   2.0000     -10.391382      -282.7639
  23   2.0000     -10.387747      -282.6650
  24   2.0000     -10.379441      -282.4389
  25   2.0000     -10.376223      -282.3514
  26   2.0000     -10.372001      -282.2365
  27   2.0000     -10.368836      -282.1504
  28   2.0000     -10.367933      -282.1258
  29   2.0000     -10.365526      -282.0603
  30   2.0000      -8.250134      -224.4975
  31   2.0000      -6.213560      -169.0796
  32   2.0000      -6.213500      -169.0779
  33   2.0000      -6.212866      -169.0607
  34   2.0000      -1.424029       -38.7498
  35   2.0000      -1.361058       -37.0363
  36   2.0000      -1.357912       -36.9507
  37   2.0000      -1.347870       -36.6774
  38   2.0000      -1.339716       -36.4555
  39   2.0000      -1.339039       -36.4371
  40   2.0000      -1.338546       -36.4237
  41   2.0000      -1.220008       -33.1981
  42   2.0000      -1.190711       -32.4009
  43   2.0000      -1.187564       -32.3153
  44   2.0000      -1.092946       -29.7406
  45   2.0000      -1.086718       -29.5711
  46   2.0000      -1.083192       -29.4752
  47   2.0000      -1.077871       -29.3304
  48   2.0000      -1.014816       -27.6145
  49   2.0000      -1.010334       -27.4926
  50   2.0000      -0.939901       -25.5760
  51   2.0000      -0.936681       -25.4884
  52   2.0000      -0.915915       -24.9233
  53   2.0000      -0.911981       -24.8163
  54   2.0000      -0.835253       -22.7284
  55   2.0000      -0.806027       -21.9331
  56   2.0000      -0.803187       -21.8558
  57   2.0000      -0.802685       -21.8422
  58   2.0000      -0.800259       -21.7762
  59   2.0000      -0.747714       -20.3463
  60   2.0000      -0.738246       -20.0887
  61   2.0000      -0.734892       -19.9974
  62   2.0000      -0.701525       -19.0895
  63   2.0000      -0.700210       -19.0537
  64   2.0000      -0.697779       -18.9875
  65   2.0000      -0.697561       -18.9816
  66   2.0000      -0.692483       -18.8434
  67   2.0000      -0.690897       -18.8003
  68   2.0000      -0.690233       -18.7822
  69   2.0000      -0.689020       -18.7492
  70   2.0000      -0.665898       -18.1200
  71   2.0000      -0.664160       -18.0727
  72   2.0000      -0.661092       -17.9892
  73   2.0000      -0.661021       -17.9873
  74   2.0000      -0.653729       -17.7889
  75   2.0000      -0.643440       -17.5089
  76   2.0000      -0.640327       -17.4242
  77   2.0000      -0.623052       -16.9541
  78   2.0000      -0.620490       -16.8844
  79   2.0000      -0.618997       -16.8438
  80   2.0000      -0.614602       -16.7242
  81   2.0000      -0.605531       -16.4773
  82   2.0000      -0.603813       -16.4306
  83   2.0000      -0.583844       -15.8872
  84   2.0000      -0.581928       -15.8351
  85   2.0000      -0.579257       -15.7624
  86   2.0000      -0.575798       -15.6683
  87   2.0000      -0.565822       -15.3968
  88   2.0000      -0.561663       -15.2836
  89   2.0000      -0.552716       -15.0402
  90   2.0000      -0.552229       -15.0269
  91   2.0000      -0.548700       -14.9309
  92   2.0000      -0.540760       -14.7148
  93   2.0000      -0.538042       -14.6409
  94   2.0000      -0.531586       -14.4652
  95   2.0000      -0.524909       -14.2835
  96   2.0000      -0.517786       -14.0897
  97   2.0000      -0.452473       -12.3124
  98   2.0000      -0.449297       -12.2260
  99   2.0000      -0.447099       -12.1662
 100   2.0000      -0.444951       -12.1077
 101   2.0000      -0.443772       -12.0756
 102   2.0000      -0.440734       -11.9930
 103   2.0000      -0.437344       -11.9007
 104   2.0000      -0.434620       -11.8266
 105   2.0000      -0.433917       -11.8075
 106   2.0000      -0.430956       -11.7269
 107   2.0000      -0.423804       -11.5323
 108   2.0000      -0.420725       -11.4485
 109   2.0000      -0.416512       -11.3339
 110   2.0000      -0.411829       -11.2064
 111   2.0000      -0.402746       -10.9593
 112   2.0000      -0.380375       -10.3505
 113   0.0000      -0.273584        -7.4446
 114   0.0000      -0.268742        -7.3128
 115   0.0000      -0.242370        -6.5952
 116   0.0000      -0.235291        -6.4026
 117   0.0000      -0.204943        -5.5768

MULLIKEN ATOMIC CHARGES
-----------------------
   0 C :    1.166149
   1 C :    0.351345
   2 C :    0.877279
   3 C :    1.178484
   4 C :    0.621192
   5 C :    0.643277
   6 H :   -0.813142
   7 H :   -0.835162
   8 H :   -0.824648
   9 H :   -0.838674
  10 N :    0.458125
  11 N :   -0.571080
  12 S :    2.475838
  13 O :   -0.970643
  14 O :   -0.949736
  15 O :   -0.982210
  16 C :    1.085987
  17 F :   -0.463977
  18 F :   -0.459300
  19 F :   -0.437023
  20 H :   -0.911251
  21 C :    1.809884
  22 C :    0.075417
  23 C :    0.427813
  24 C :    1.174449
  25 C :    0.488708
  26 H :   -0.870887
  27 C :    1.009880
  28 H :   -0.886574
  29 N :    0.524411
  30 N :   -0.638115
  31 N :    0.705749
  32 O :   -0.615074
  33 O :   -0.635177
  34 H :   -0.829946
  35 N :    0.715953
  36 O :   -0.641705
  37 O :   -0.615616
Sum of atomic charges:    1.0000000

LOEWDIN ATOMIC CHARGES
----------------------
   0 C :    0.135417
   1 C :   -0.142547
   2 C :    0.118919
   3 C :    0.109356
   4 C :   -0.076178
   5 C :    0.119885
   6 H :   -0.047963
   7 H :    0.035725
   8 H :    0.023831
   9 H :    0.024756
  10 N :    0.077764
  11 N :    0.404311
  12 S :    0.671320
  13 O :   -0.345876
  14 O :   -0.352282
  15 O :   -0.316298
  16 C :   -0.564738
  17 F :    0.109572
  18 F :    0.108419
  19 F :    0.124058
  20 H :   -0.052179
  21 C :    0.137794
  22 C :   -0.141358
  23 C :    0.120567
  24 C :    0.120316
  25 C :   -0.074135
  26 H :    0.026415
  27 C :    0.110254
  28 H :    0.036145
  29 N :    0.067913
  30 N :    0.424708
  31 N :   -0.374335
  32 O :    0.183330
  33 O :    0.181530
  34 H :    0.024307
  35 N :   -0.374099
  36 O :    0.182523
  37 O :    0.182854

  Mayer bond orders larger than 0.1
B(  0-C ,  1-C ) :   0.9372 B(  0-C ,  2-C ) :  -0.3196 B(  0-C ,  3-C ) :   0.4151
B(  0-C ,  4-C ) :  -0.4728 B(  0-C ,  5-C ) :   2.5527 B(  0-C ,  6-H ) :  -0.5803
B(  0-C ,  7-H ) :   0.2183 B(  0-C ,  9-H ) :   0.4282 B(  0-C , 10-N ) :  -0.4656
B(  0-C , 11-N ) :   0.2495 B(  0-C , 15-O ) :  -0.1857 B(  1-C ,  2-C ) :   0.4219
B(  1-C ,  3-C ) :  -0.6623 B(  1-C ,  4-C ) :   0.5804 B(  1-C ,  5-C ) :  -0.7857
B(  1-C ,  6-H ) :   0.4819 B(  1-C ,  7-H ) :   1.5428 B(  1-C ,  8-H ) :  -0.2350
B(  1-C ,  9-H ) :  -0.1830 B(  1-C , 10-N ) :   1.0169 B(  1-C , 11-N ) :  -0.8227
B(  1-C , 15-O ) :   0.2557 B(  2-C ,  3-C ) :   2.6807 B(  2-C ,  4-C ) :  -0.7369
B(  2-C ,  5-C ) :   0.3666 B(  2-C ,  7-H ) :  -1.2285 B(  2-C ,  8-H ) :   0.3261
B(  2-C , 31-N ) :   0.1017 B(  3-C ,  4-C ) :   0.6921 B(  3-C ,  5-C ) :  -0.3190
B(  3-C ,  8-H ) :  -0.7455 B(  3-C , 33-O ) :  -0.1304 B(  4-C ,  5-C ) :   0.5453
B(  4-C ,  6-H ) :  -0.1334 B(  4-C ,  7-H ) :  -0.3136 B(  4-C ,  8-H ) :   0.6587
B(  4-C ,  9-H ) :   0.5199 B(  4-C , 31-N ) :   0.6429 B(  4-C , 32-O ) :   0.1464
B(  4-C , 33-O ) :   0.2199 B(  5-C ,  6-H ) :   0.1240 B(  5-C ,  8-H ) :   0.1284
B(  5-C ,  9-H ) :  -0.7154 B(  5-C , 31-N ) :  -0.1542 B(  6-H , 10-N ) :  -0.1460
B(  7-H , 10-N ) :  -0.2182 B( 10-N , 11-N ) :   1.4048 B( 10-N , 13-O ) :   0.1085
B( 12-S , 13-O ) :   0.5885 B( 12-S , 14-O ) :   0.6275 B( 12-S , 15-O ) :   0.6400
B( 12-S , 16-C ) :   0.7667 B( 13-O , 15-O ) :   0.1952 B( 13-O , 16-C ) :   0.1574
B( 14-O , 15-O ) :   0.1137 B( 14-O , 16-C ) :   0.1363 B( 16-C , 17-F ) :   0.6087
B( 16-C , 18-F ) :   0.6068 B( 16-C , 19-F ) :   0.6907 B( 20-H , 21-C ) :  -0.9552
B( 20-H , 22-C ) :   0.6299 B( 20-H , 23-C ) :   0.1310 B( 20-H , 24-C ) :   0.1153
B( 20-H , 25-C ) :  -0.2213 B( 20-H , 29-N ) :  -0.1113 B( 21-C , 22-C ) :   1.0935
B( 21-C , 23-C ) :   2.1747 B( 21-C , 24-C ) :  -0.4225 B( 21-C , 25-C ) :  -0.4694
B( 21-C , 26-H ) :   0.2842 B( 21-C , 27-C ) :   0.2717 B( 21-C , 29-N ) :  -0.5294
B( 21-C , 30-N ) :   0.1927 B( 22-C , 23-C ) :  -0.9454 B( 22-C , 24-C ) :   0.2395
B( 22-C , 25-C ) :   0.5597 B( 22-C , 26-H ) :  -0.2100 B( 22-C , 27-C ) :  -0.3339
B( 22-C , 28-H ) :   1.7513 B( 22-C , 29-N ) :   1.0529 B( 22-C , 30-N ) :  -0.8967
B( 22-C , 34-H ) :  -0.1969 B( 23-C , 24-C ) :   0.4659 B( 23-C , 25-C ) :   0.5911
B( 23-C , 26-H ) :  -0.7232 B( 23-C , 27-C ) :  -0.3689 B( 23-C , 30-N ) :   0.1125
B( 23-C , 34-H ) :   0.1921 B( 23-C , 35-N ) :  -0.1925 B( 24-C , 25-C ) :  -0.6149
B( 24-C , 27-C ) :   2.5059 B( 24-C , 28-H ) :  -1.6127 B( 24-C , 34-H ) :   0.2233
B( 24-C , 35-N ) :   0.1081 B( 25-C , 26-H ) :   0.6815 B( 25-C , 27-C ) :   0.7005
B( 25-C , 28-H ) :  -0.2202 B( 25-C , 34-H ) :   0.7256 B( 25-C , 35-N ) :   0.6412
B( 25-C , 36-O ) :   0.2487 B( 25-C , 37-O ) :   0.1566 B( 27-C , 28-H ) :   0.2491
B( 27-C , 34-H ) :  -0.7744 B( 27-C , 36-O ) :  -0.1393 B( 28-H , 29-N ) :  -0.2909
B( 29-N , 30-N ) :   1.4662 B( 31-N , 32-O ) :   0.9062 B( 31-N , 33-O ) :   0.8772
B( 32-O , 33-O ) :   0.3336 B( 35-N , 36-O ) :   0.8394 B( 35-N , 37-O ) :   0.8898
B( 36-O , 37-O ) :   0.3400

FINAL SINGLE POINT ENERGY     -2052.595445981422

DIPOLE MOMENT
-------------
                                X             Y             Z
Electronic contribution:      2.69858      13.21590       1.54958
Nuclear contribution   :     -1.62379     -14.29672      -1.98833
                        -----------------------------------------
Total Dipole Moment    :      1.07479      -1.08081      -0.43875
                        -----------------------------------------
Magnitude (a.u.)       :      1.58614
Magnitude (Debye)      :      4.03165

VIBRATIONAL FREQUENCIES
-----------------------

Scaling factor for frequencies =  1.000000000 (already applied!)

   0:         0.00 cm**-1
   1:         0.00 cm**-1
   2:         0.00 cm**-1
   3:         0.00 cm**-1
   4:         0.00 cm**-1
   5:         0.00 cm**-1
   6:         3.98 cm**-1
   7:        10.53 cm**-1
   8:        14.52 cm**-1
   9:        17.17 cm**-1
  10:        22.53 cm**-1
  11:        33.07 cm**-1
  12:        36.33 cm**-1
  13:        39.63 cm**-1
  14:        50.10 cm**-1
  15:        55.54 cm**-1
  16:        60.50 cm**-1
  17:        66.43 cm**-1
  18:        82.96 cm**-1
  19:        84.31 cm**-1
  20:        85.46 cm**-1
  21:       103.32 cm**-1
  22:       109.87 cm**-1
  23:       152.42 cm**-1
  24:       184.68 cm**-1
  25:       193.15 cm**-1
  26:       194.43 cm**-1
  27:       226.06 cm**-1
  28:       226.29 cm**-1
  29:       254.71 cm**-1
  30:       263.04 cm**-1
  31:       281.15 cm**-1
  32:       317.32 cm**-1
  33:       327.48 cm**-1
  34:       328.56 cm**-1
  35:       329.08 cm**-1
  36:       409.87 cm**-1
  37:       410.73 cm**-1
  38:       433.11 cm**-1
  39:       436.29 cm**-1
  40:       470.46 cm**-1
  41:       483.14 cm**-1
  42:       488.78 cm**-1
  43:       495.45 cm**-1
  44:       539.55 cm**-1
  45:       542.88 cm**-1
  46:       545.27 cm**-1
  47:       546.95 cm**-1
  48:       547.84 cm**-1
  49:       552.50 cm**-1
  50:       568.93 cm**-1
  51:       570.83 cm**-1
  52:       587.80 cm**-1
  53:       640.97 cm**-1
  54:       641.74 cm**-1
  55:       676.77 cm**-1
  56:       677.66 cm**-1
  57:       736.02 cm**-1
  58:       767.26 cm**-1
  59:       767.39 cm**-1
  60:       771.94 cm**-1
  61:       772.87 cm**-1
  62:       839.82 cm**-1
  63:       845.39 cm**-1
  64:       863.29 cm**-1
  65:       864.42 cm**-1
  66:       902.70 cm**-1
  67:       912.80 cm**-1
  68:       946.71 cm**-1
  69:      1002.96 cm**-1
  70:      1003.60 cm**-1
  71:      1012.24 cm**-1
  72:      1019.15 cm**-1
  73:      1033.11 cm**-1
  74:      1040.11 cm**-1
  75:      1100.35 cm**-1
  76:      1101.69 cm**-1
  77:      1108.64 cm**-1
  78:      1115.57 cm**-1
  79:      1121.31 cm**-1
  80:      1122.19 cm**-1
  81:      1133.73 cm**-1
  82:      1145.19 cm**-1
  83:      1156.07 cm**-1
  84:      1178.73 cm**-1
  85:      1188.21 cm**-1
  86:      1193.45 cm**-1
  87:      1196.41 cm**-1
  88:      1305.61 cm**-1
  89:      1308.38 cm**-1
  90:      1374.13 cm**-1
  91:      1375.07 cm**-1
  92:      1379.65 cm**-1
  93:      1379.83 cm**-1
  94:      1434.51 cm**-1
  95:      1438.14 cm**-1
  96:      1475.09 cm**-1
  97:      1478.70 cm**-1
  98:      1602.92 cm**-1
  99:      1603.59 cm**-1
 100:      1614.27 cm**-1
 101:      1616.44 cm**-1
 102:      1652.92 cm**-1
 103:      1653.28 cm**-1
 104:      2341.52 cm**-1
 105:      2369.49 cm**-1
 106:      3197.72 cm**-1
 107:      3206.08 cm**-1
 108:      3216.19 cm**-1
 109:      3216.92 cm**-1
 110:      3235.53 cm**-1
 111:      3235.69 cm**-1
 112:      3237.37 cm**-1
 113:      3238.64 cm**-1

IR SPECTRUM
-----------

 Mode    freq (cm**-1)   T**2         TX         TY         TZ
-------------------------------------------------------------------
   6:         3.98    0.000000  (  0.000000   0.000000   0.000000)
   7:        10.53    0.404336  (  0.475240  -0.337550  -0.254055)
   8:        14.52    3.898195  ( -0.697302   1.780484   0.491772)
   9:        17.17    2.177616  ( -0.762813  -1.088975  -0.640209)
  10:        22.53    0.776848  ( -0.779255  -0.392822   0.123690)
  11:        33.07    2.290062  ( -0.531532   1.359472   0.399216)
  12:        36.33    3.353407  (  0.167559  -1.673003  -0.725528)
  13:        39.63    0.844367  ( -0.019149  -0.918026  -0.035044)
  14:        50.10    1.342048  (  0.567583  -0.932861  -0.386870)
  15:        55.54    0.780077  ( -0.700763   0.218579   0.491153)
  16:        60.50    1.600732  ( -0.977200  -0.158322   0.787874)
  17:        66.43   10.680872  (  0.149681   1.357423  -2.969153)
  18:        82.96    3.239181  ( -1.273504  -1.229159   0.326397)
  19:        84.31    5.671318  ( -0.353064  -2.182971  -0.883912)
  20:        85.46    2.964347  ( -1.362936  -0.295621   1.009634)
  21:       103.32    1.881567  (  0.509030  -0.828353   0.967620)
  22:       109.87   74.139144  (  8.432628   0.139647  -1.735056)
  23:       152.42    6.579613  (  2.534423  -0.376525  -0.120592)
  24:       184.68    1.287361  ( -0.168061  -0.578694   0.961369)
  25:       193.15    6.498175  ( -2.480861  -0.585983  -0.011260)
  26:       194.43    0.022767  ( -0.040825   0.106080   0.099235)
  27:       226.06    0.707591  ( -0.393518  -0.465575  -0.579633)
  28:       226.29    0.945126  ( -0.413014   0.834298   0.280164)
  29:       254.71    0.994479  ( -0.981153   0.095582   0.150601)
  30:       263.04    2.759511  (  1.568961   0.300563  -0.455558)
  31:       281.15    1.115853  (  0.255386   0.951583   0.380946)
  32:       317.32    0.513945  ( -0.050212  -0.538741   0.470300)
  33:       327.48    7.014456  (  1.619242   1.326247  -1.622831)
  34:       328.56   36.208910  (  5.852688  -0.415239   1.335114)
  35:       329.08    2.497057  ( -0.977442  -1.175183  -0.400763)
  36:       409.87    0.127230  ( -0.062886  -0.131078  -0.325720)
  37:       410.73    0.175849  (  0.384962   0.100886  -0.132195)
  38:       433.11    0.357495  ( -0.058181  -0.527557  -0.275307)
  39:       436.29    0.036732  (  0.104425  -0.146180  -0.066778)
  40:       470.46   13.961789  ( -0.029727   2.196712  -3.022476)
  41:       483.14   55.775575  (  7.442667  -0.512564  -0.345769)
  42:       488.78    0.239304  ( -0.176549  -0.387057  -0.241498)
  43:       495.45    1.944806  ( -1.349869  -0.190785   0.293704)
  44:       539.55    1.700448  ( -0.931410   0.496396  -0.765842)
  45:       542.88   12.652007  ( -3.340203  -0.509873   1.111342)
  46:       545.27    4.788900  ( -2.087744   0.601719  -0.261071)
  47:       546.95    8.835797  ( -0.355055  -2.912582  -0.476023)
  48:       547.84    2.026587  ( -1.271441   0.622569   0.149775)
  49:       552.50    5.262089  ( -0.685064  -1.782110  -1.271559)
  50:       568.93    1.182008  ( -0.099355  -1.011278  -0.386591)
  51:       570.83    1.389065  ( -0.920012   0.460558   0.574916)
  52:       587.80  145.265971  ( -1.417697 -11.281802  -3.997131)
  53:       640.97   11.889896  ( -3.446528  -0.036853   0.099904)
  54:       641.74    0.288573  ( -0.480560   0.045850  -0.235654)
  55:       676.77   15.272032  (  0.878162   3.471093   1.566008)
  56:       677.66   13.914147  (  0.296916  -3.669578  -0.600158)
  57:       736.02    0.045987  ( -0.061535   0.062395  -0.195722)
  58:       767.26    7.916946  ( -1.359981  -1.587927  -1.883052)
  59:       767.39   31.386378  (  0.374214  -5.272811  -1.855750)
  60:       771.94   49.945553  (  6.332636  -0.733744   3.050392)
  61:       772.87   11.940789  ( -0.110829   2.872044  -1.918299)
  62:       839.82    5.435344  (  0.833368  -2.148674  -0.352196)
  63:       845.39    8.301906  (  0.984035   2.411220   1.232721)
  64:       863.29   52.862796  (  6.172206   0.631985   3.790417)
  65:       864.42   40.265133  ( -2.385122   3.758498  -4.522169)
  66:       902.70   25.281094  ( -0.604123   4.893818   0.983198)
  67:       912.80   15.254004  (  0.732060   3.156292   2.180806)
  68:       946.71  216.907267  ( -1.330045 -13.847178  -4.836724)
  69:      1002.96    0.319825  (  0.177111  -0.509452  -0.170043)
  70:      1003.60    0.578142  (  0.038100   0.509438   0.563173)
  71:      1012.24    4.228938  ( -1.608305   0.807356  -0.995223)
  72:      1019.15    6.375238  (  2.491218   0.328106   0.247824)
  73:      1033.11    2.377738  ( -0.908800  -1.198596  -0.339393)
  74:      1040.11    1.184935  ( -0.092037  -1.084102   0.034435)
  75:      1100.35  234.671870  (-14.266172   0.405684  -5.566295)
  76:      1101.69   25.290785  ( -2.408136   4.370166  -0.627148)
  77:      1108.64   23.901969  ( -1.504449  -2.026380   4.187169)
  78:      1115.57   31.894347  ( -5.360288  -1.522140  -0.919102)
  79:      1121.31   30.711437  (  0.588924  -2.004496   5.132894)
  80:      1122.19    6.564658  (  2.041857   0.637928   1.410152)
  81:      1133.73   58.904067  (  1.060129   3.882572  -6.534970)
  82:      1145.19    8.126679  (  2.834199   0.123904  -0.280434)
  83:      1156.07  106.590631  ( -1.692878  -5.864160  -8.326850)
  84:      1178.73  660.777258  (-24.668531  -1.943843   6.961488)
  85:      1188.21  333.124549  (-10.429279  10.178794 -10.988487)
  86:      1193.45    1.469757  ( -0.046111   0.035888   1.210926)
  87:      1196.41  138.009890  ( 10.896910   1.740173  -4.029768)
  88:      1305.61    0.923162  ( -0.693553   0.604828  -0.276279)
  89:      1308.38   11.795506  (  3.273480   0.953142  -0.413953)
  90:      1374.13   23.103056  ( -3.320825   1.932598  -2.887948)
  91:      1375.07  117.174896  (  9.833290   0.165880  -4.522586)
  92:      1379.65  281.485503  (-10.698788   4.553882 -12.094775)
  93:      1379.83   65.732646  ( -6.066875  -5.337383   0.661828)
  94:      1434.51   13.248386  (  3.471529  -0.184119  -1.078412)
  95:      1438.14    5.010357  (  0.897564   0.479659  -1.993656)
  96:      1475.09    2.700739  ( -1.505924   0.471102  -0.459343)
  97:      1478.70    6.936827  ( -2.491467  -0.800764  -0.296978)
  98:      1602.92   19.987848  (  4.208919  -0.209368  -1.492988)
  99:      1603.59  176.037524  ( -7.538993  -2.909765  10.523040)
 100:      1614.27   76.248568  ( -6.678426   4.343674  -3.574870)
 101:      1616.44   82.694980  (  8.692784   0.618620   2.597652)
 102:      1652.92   44.205062  (  6.558567  -0.625731  -0.893712)
 103:      1653.28  226.074565  ( -8.251693  -2.881426  12.234439)
 104:      2341.52   52.997924  ( -2.530023   0.166838  -6.824154)
 105:      2369.49  142.060154  ( -4.548745   6.307855  -9.032167)
 106:      3197.72  359.758944  ( 18.552678  -3.899903  -0.589792)
 107:      3206.08  147.350142  (-11.226150  -4.407104   1.378811)
 108:      3216.19    8.817582  (  2.133683   0.069029   2.064029)
 109:      3216.92    3.575048  (  0.386541   1.214755  -1.396425)
 110:      3235.53   31.141391  (  3.118110   1.416974  -4.405788)
 111:      3235.69   28.384474  ( -5.109289   0.753082   1.308628)
 112:      3237.37    9.101956  (  2.622387   0.384940   1.441132)
 113:      3238.64   11.954966  ( -0.893479   1.711791  -2.868176)

--------------------------
THERMOCHEMISTRY AT 623.15K
--------------------------

Temperature         ... 623.15 K
Pressure            ... 1.00 atm
Total Mass          ... 449.30 AMU

Throughout the following assumptions are being made:
  (1) The electronic state is orbitally nondegenerate
  (2) There are no thermally accessible electronically excited states
  (3) Hindered rotations indicated by low frequency modes are not
      treated as such but are treated as vibrations and this may
      cause some error
  (4) All equations used are the standard statistical mechanics
      equations for an ideal gas
  (5) All vibrations are strictly harmonic

freq.       3.98  E(vib)   ...       1.23
freq.      10.53  E(vib)   ...       1.22
freq.      14.52  E(vib)   ...       1.22
freq.      17.17  E(vib)   ...       1.21
freq.      22.53  E(vib)   ...       1.21
freq.      33.07  E(vib)   ...       1.19
freq.      36.33  E(vib)   ...       1.19
freq.      39.63  E(vib)   ...       1.18
freq.      50.10  E(vib)   ...       1.17
freq.      55.54  E(vib)   ...       1.16
freq.      60.50  E(vib)   ...       1.15
freq.      66.43  E(vib)   ...       1.15
freq.      82.96  E(vib)   ...       1.12
freq.      84.31  E(vib)   ...       1.12
freq.      85.46  E(vib)   ...       1.12
freq.     103.32  E(vib)   ...       1.10
freq.     109.87  E(vib)   ...       1.09
freq.     152.42  E(vib)   ...       1.03
freq.     184.68  E(vib)   ...       0.99
freq.     193.15  E(vib)   ...       0.98
freq.     194.43  E(vib)   ...       0.98
freq.     226.06  E(vib)   ...       0.94
freq.     226.29  E(vib)   ...       0.94
freq.     254.71  E(vib)   ...       0.91
freq.     263.04  E(vib)   ...       0.90
freq.     281.15  E(vib)   ...       0.88
freq.     317.32  E(vib)   ...       0.84
freq.     327.48  E(vib)   ...       0.83
freq.     328.56  E(vib)   ...       0.83
freq.     329.08  E(vib)   ...       0.83
freq.     409.87  E(vib)   ...       0.74
freq.     410.73  E(vib)   ...       0.74
freq.     433.11  E(vib)   ...       0.72
freq.     436.29  E(vib)   ...       0.72
freq.     470.46  E(vib)   ...       0.69
freq.     483.14  E(vib)   ...       0.67
freq.     488.78  E(vib)   ...       0.67
freq.     495.45  E(vib)   ...       0.66
freq.     539.55  E(vib)   ...       0.62
freq.     542.88  E(vib)   ...       0.62
freq.     545.27  E(vib)   ...       0.62
freq.     546.95  E(vib)   ...       0.62
freq.     547.84  E(vib)   ...       0.62
freq.     552.50  E(vib)   ...       0.61
freq.     568.93  E(vib)   ...       0.60
freq.     570.83  E(vib)   ...       0.60
freq.     587.80  E(vib)   ...       0.58
freq.     640.97  E(vib)   ...       0.54
freq.     641.74  E(vib)   ...       0.54
freq.     676.77  E(vib)   ...       0.51
freq.     677.66  E(vib)   ...       0.51
freq.     736.02  E(vib)   ...       0.47
freq.     767.26  E(vib)   ...       0.45
freq.     767.39  E(vib)   ...       0.45
freq.     771.94  E(vib)   ...       0.45
freq.     772.87  E(vib)   ...       0.45
freq.     839.82  E(vib)   ...       0.40
freq.     845.39  E(vib)   ...       0.40
freq.     863.29  E(vib)   ...       0.39
freq.     864.42  E(vib)   ...       0.39
freq.     902.70  E(vib)   ...       0.37
freq.     912.80  E(vib)   ...       0.36
freq.     946.71  E(vib)   ...       0.34
freq.    1002.96  E(vib)   ...       0.31
freq.    1003.60  E(vib)   ...       0.31
freq.    1012.24  E(vib)   ...       0.31
freq.    1019.15  E(vib)   ...       0.31
freq.    1033.11  E(vib)   ...       0.30
freq.    1040.11  E(vib)   ...       0.30
freq.    1100.35  E(vib)   ...       0.27
freq.    1101.69  E(vib)   ...       0.27
freq.    1108.64  E(vib)   ...       0.27
freq.    1115.57  E(vib)   ...       0.26
freq.    1121.31  E(vib)   ...       0.26
freq.    1122.19  E(vib)   ...       0.26
freq.    1133.73  E(vib)   ...       0.26
freq.    1145.19  E(vib)   ...       0.25
freq.    1156.07  E(vib)   ...       0.25
freq.    1178.73  E(vib)   ...       0.24
freq.    1188.21  E(vib)   ...       0.23
freq.    1193.45  E(vib)   ...       0.23
freq.    1196.41  E(vib)   ...       0.23
freq.    1305.61  E(vib)   ...       0.19
freq.    1308.38  E(vib)   ...       0.19
freq.    1374.13  E(vib)   ...       0.17
freq.    1375.07  E(vib)   ...       0.17
freq.    1379.65  E(vib)   ...       0.17
freq.    1379.83  E(vib)   ...       0.17
freq.    1434.51  E(vib)   ...       0.16
freq.    1438.14  E(vib)   ...       0.15
freq.    1475.09  E(vib)   ...       0.14
freq.    1478.70  E(vib)   ...       0.14
freq.    1602.92  E(vib)   ...       0.12
freq.    1603.59  E(vib)   ...       0.12
freq.    1614.27  E(vib)   ...       0.11
freq.    1616.44  E(vib)   ...       0.11
freq.    1652.92  E(vib)   ...       0.11
freq.    1653.28  E(vib)   ...       0.11
freq.    2341.52  E(vib)   ...       0.03
freq.    2369.49  E(vib)   ...       0.03
freq.    3197.72  E(vib)   ...       0.01
freq.    3206.08  E(vib)   ...       0.01
freq.    3216.19  E(vib)   ...       0.01
freq.    3216.92  E(vib)   ...       0.01
freq.    3235.53  E(vib)   ...       0.01
freq.    3235.69  E(vib)   ...       0.01
freq.    3237.37  E(vib)   ...       0.01
freq.    3238.64  E(vib)   ...       0.01

------------
INNER ENERGY
------------

The inner energy is: U= E(el) + E(ZPE) + E(vib) + E(rot) + E(trans)
    E(el)   - is the total energy from the electronic structure calculation
              = E(kin-el) + E(nuc-el) + E(el-el) + E(nuc-nuc)
    E(ZPE)  - the the zero temperature vibrational energy from the frequency calculation
    E(vib)  - the the finite temperature correction to E(ZPE) due to population
              of excited vibrational states
    E(rot)  - is the rotational thermal energy
    E(trans)- is the translational thermal energy

Summary of contributions to the inner energy U:
Electronic energy                ...  -2052.59544600 Eh
Zero point energy                ...      0.22912241 Eh     143.78 kcal/mol
Thermal vibrational correction   ...      0.09145751 Eh      57.39 kcal/mol
Thermal rotational correction    ...      0.00296009 Eh       1.86 kcal/mol
Thermal translational correction ...      0.00296009 Eh       1.86 kcal/mol
-----------------------------------------------------------------------
Total thermal energy                  -2052.26894591 Eh

Summary of corrections to the electronic energy:
(perhaps to be used in another calculation)
Total thermal correction                  0.09737768 Eh      61.11 kcal/mol
Non-thermal (ZPE) correction              0.22912241 Eh     143.78 kcal/mol
-----------------------------------------------------------------------
Total correction                          0.32650009 Eh     204.88 kcal/mol

--------
ENTHALPY
--------

Rotational constants in cm-1:     0.008399     0.001620     0.001537

                             ****ORCA TERMINATED NORMALLY****
TOTAL RUN TIME: 1 days 19 hours 44 minutes 38 seconds 571 msec
