 Gaussian 09, Revision B.01,
 Gaussian 09:  EM64L-G09RevB.01 12-Aug-2010

 ----------------------------
 # opt freq rb3lyp/6-31G(d,p)
 ----------------------------

 --------------------------------
 2-HOOC-Ph-N2-OTf-RB3LYP-6-31G_dp
 --------------------------------
 Symbolic Z-matrix:
 Charge =  0 Multiplicity = 1

 SCF Done:  E(RB3LYP) =  -1491.00157252     A.U. after   24 cycles
 SCF Done:  E(RB3LYP) =  -1491.03829881     A.U. after   19 cycles
 SCF Done:  E(RB3LYP) =  -1491.05170190     A.U. after   19 cycles
 SCF Done:  E(RB3LYP) =  -1491.05897417     A.U. after   14 cycles
 SCF Done:  E(RB3LYP) =  -1491.06267378     A.U. after   13 cycles
 SCF Done:  E(RB3LYP) =  -1491.06235302     A.U. after   14 cycles
 SCF Done:  E(RB3LYP) =  -1491.06298114     A.U. after   13 cycles
 SCF Done:  E(RB3LYP) =  -1491.06320388     A.U. after   14 cycles
 SCF Done:  E(RB3LYP) =  -1491.06375702     A.U. after   12 cycles
 SCF Done:  E(RB3LYP) =  -1491.06433305     A.U. after   14 cycles
 SCF Done:  E(RB3LYP) =  -1491.06622202     A.U. after    9 cycles
 SCF Done:  E(RB3LYP) =  -1491.06622244     A.U. after    8 cycles
 SCF Done:  E(RB3LYP) =  -1491.06622268     A.U. after    8 cycles
 SCF Done:  E(RB3LYP) =  -1491.06622283     A.U. after    8 cycles
 SCF Done:  E(RB3LYP) =  -1491.06622297     A.U. after    8 cycles
 SCF Done:  E(RB3LYP) =  -1491.06622311     A.U. after    9 cycles
 SCF Done:  E(RB3LYP) =  -1491.06622326     A.U. after    9 cycles
 SCF Done:  E(RB3LYP) =  -1491.06622335     A.U. after    9 cycles
 SCF Done:  E(RB3LYP) =  -1491.06622338     A.U. after    8 cycles
 Optimization completed.
    -- Stationary point found.
 Normal termination of Gaussian 09 at Thu Mar  3 17:39:26 2005.

 ----------------------------------------------------------------------
 #N Geom=AllCheck Guess=TCheck SCRF=Check GenChk RB3LYP/6-31G(d,p) Freq
 ----------------------------------------------------------------------

 2-HOOC-Ph-N2-OTf-RB3LYP-6-31G_dp
 --------------------------------
 Redundant internal coordinates taken from checkpoint file:
 Ph-N2-OTf-N2-Ph.chk
 Charge =  0 Multiplicity = 1

                         Standard orientation:
 ---------------------------------------------------------------------
 Center     Atomic      Atomic             Coordinates (Angstroms)
 Number     Number       Type             X           Y           Z
 ---------------------------------------------------------------------
      1          6           0        1.346368    1.509080   -0.378154
      2          6           0        1.872445    0.221787   -0.229687
      3          6           0        3.243934   -0.040939   -0.025632
      4          6           0        4.098629    1.056647    0.047815
      5          6           0        3.599873    2.356301   -0.092039
      6          6           0        2.240007    2.578319   -0.306642
      7          1           0        0.274642    1.632782   -0.548058
      8          1           0        5.154919    0.885047    0.214666
      9          1           0        4.282998    3.197284   -0.032565
     10          1           0        1.858201    3.587758   -0.415346
     11          7           0        0.963127   -0.831674   -0.313089
     12          7           0        0.025784   -1.443901   -0.271529
     13         16           0       -2.236275    0.615584    0.388629
     14          8           0       -1.320022   -0.289508    1.171568
     15          8           0       -2.932488    1.621090    1.196370
     16          8           0       -1.596604    1.085755   -0.872068
     17          6           0       -3.557681   -0.545821   -0.214582
     18          9           0       -4.214451   -1.090680    0.815679
     19          9           0       -3.005282   -1.537827   -0.937489
     20          9           0       -4.435664    0.102064   -0.989365
     21          6           0        3.721839   -1.444990    0.111591
     22          8           0        2.988993   -2.410902    0.055196
     23          8           0        5.050812   -1.526049    0.299006
     24          1           0        5.267820   -2.470602    0.379538
 ---------------------------------------------------------------------

 SCF Done:  E(RB3LYP) =  -1491.06622338     A.U. after    1 cycles

 The electronic state is 1-A.
 Alpha  occ. eigenvalues --  -89.08297 -24.71303 -24.71095 -24.71068 -19.25296
 Alpha  occ. eigenvalues --  -19.19801 -19.11942 -19.11108 -19.10659 -14.54939
 Alpha  occ. eigenvalues --  -14.53398 -10.41543 -10.38432 -10.33658 -10.28981
 Alpha  occ. eigenvalues --  -10.26869 -10.26730 -10.26587 -10.26288  -8.10601
 Alpha  occ. eigenvalues --   -6.07062  -6.07027  -6.07001  -1.29039  -1.20406
 Alpha  occ. eigenvalues --   -1.20291  -1.20279  -1.16414  -1.09138  -1.07464
 Alpha  occ. eigenvalues --   -0.96208  -0.96081  -0.95488  -0.88308  -0.83961
 Alpha  occ. eigenvalues --   -0.76733  -0.71616  -0.70437  -0.68145  -0.62808
 Alpha  occ. eigenvalues --   -0.61330  -0.58279  -0.56748  -0.56685  -0.56432
 Alpha  occ. eigenvalues --   -0.56181  -0.54151  -0.53793  -0.52339  -0.51278
 Alpha  occ. eigenvalues --   -0.50615  -0.49880  -0.49671  -0.45770  -0.44619
 Alpha  occ. eigenvalues --   -0.44322  -0.43766  -0.43455  -0.43195  -0.42600
 Alpha  occ. eigenvalues --   -0.42408  -0.41562  -0.40420  -0.40342  -0.38322
 Alpha  occ. eigenvalues --   -0.37558  -0.33891  -0.33597  -0.32708  -0.31403
 Alpha  occ. eigenvalues --   -0.31104  -0.28190  -0.27982  -0.27123  -0.23998
 Alpha virt. eigenvalues --   -0.14681  -0.11245  -0.09638  -0.03751  -0.00221
 Alpha virt. eigenvalues --    0.03008   0.05351   0.10099   0.11047   0.11395
 Alpha virt. eigenvalues --    0.12226   0.12742   0.13201   0.13299   0.14185

 Mulliken atomic charges:
              1
     1  C    0.006350
     2  C    0.201454
     3  C    0.083106
     4  C   -0.123937
     5  C   -0.053795
     6  C   -0.104234
     7  H    0.222384
     8  H    0.148857
     9  H    0.132436
    10  H    0.146815
    11  N    0.095873
    12  N   -0.001818
    13  S    1.154674
    14  O   -0.602080
    15  O   -0.512373
    16  O   -0.619369
    17  C    0.573172
    18  F   -0.241000
    19  F   -0.256733
    20  F   -0.241483
    21  C    0.589338
    22  O   -0.458717
    23  O   -0.484803
    24  H    0.345881
 Sum of Mulliken atomic charges =   0.00000

 Dipole moment (field-independent basis, Debye):
    X=             13.7052    Y=             -0.1264    Z=             -1.9663  Tot=             13.8462
 Quadrupole moment (field-independent basis, Debye-Ang):
   XX=            -91.9080   YY=           -101.7728   ZZ=           -115.8661
   XY=              8.4786   XZ=              5.0108   YZ=             -2.1655

  Exact polarizability: 219.690   2.830 149.843  -5.449  -0.812  70.064
 Approx polarizability: 319.860  13.705 273.035 -13.979   2.100 126.122

                     1                      2                      3
                     A                      A                      A
 Frequencies --    17.7741                29.5070                34.6486
 Red. masses --    11.8524                10.9290                14.0377
 Frc consts  --     0.0022                 0.0056                 0.0099
 IR Inten    --     1.5899                 0.9710                 2.3945

                     4                      5                      6
                     A                      A                      A
 Frequencies --    45.2925                54.7708                64.9037
 Red. masses --    10.2408                11.7822                13.6244
 Frc consts  --     0.0124                 0.0208                 0.0338
 IR Inten    --     0.9616                 0.9993                 2.1339

                     7                      8                      9
                     A                      A                      A
 Frequencies --    94.8809               129.1804               151.2462
 Red. masses --    10.6653                 4.9595                10.5284
 Frc consts  --     0.0566                 0.0488                 0.1419
 IR Inten    --     3.8279                 4.4791                11.6939

                    10                     11                     12
                     A                      A                      A
 Frequencies --   186.3570               196.7416               203.4766
 Red. masses --     6.6790                16.5969                 9.6647
 Frc consts  --     0.1367                 0.3785                 0.2358
 IR Inten    --     7.8045                16.7223                64.1346

                    13                     14                     15
                     A                      A                      A
 Frequencies --   210.3952               246.9414               305.4335
 Red. masses --    13.2215                 8.4582                17.6896
 Frc consts  --     0.3448                 0.3039                 0.9723
 IR Inten    --     8.9580                52.1597                 0.8368

                    16                     17                     18
                     A                      A                      A
 Frequencies --   331.5905               345.3556               359.8482
 Red. masses --    16.6204                17.0329                 9.7178
 Frc consts  --     1.0767                 1.1969                 0.7414
 IR Inten    --     0.5761                21.2733                 5.4995

                    19                     20                     21
                     A                      A                      A
 Frequencies --   390.7682               423.8303               430.5014
 Red. masses --     5.6980                10.9740                 3.4241
 Frc consts  --     0.5126                 1.1614                 0.3739
 IR Inten    --    19.1254                 1.2383                 7.9609

                    22                     23                     24
                     A                      A                      A
 Frequencies --   494.0045               503.9087               520.6576
 Red. masses --    17.5281                15.0838                 7.8866
 Frc consts  --     2.5203                 2.2566                 1.2596
 IR Inten    --    18.3883                57.6778                10.8055

                    25                     26                     27
                     A                      A                      A
 Frequencies --   544.2786               558.9964               562.1416
 Red. masses --     5.9631                16.8486                16.9118
 Frc consts  --     1.0408                 3.1019                 3.1487
 IR Inten    --    15.1272                 3.4291                17.4239

                    28                     29                     30
                     A                      A                      A
 Frequencies --   577.3661               600.7960               618.3081
 Red. masses --     6.3922                 1.3417                16.3975
 Frc consts  --     1.2555                 0.2853                 3.6935
 IR Inten    --    16.0081                72.6272               188.8308

                    31                     32                     33
                     A                      A                      A
 Frequencies --   644.3736               694.9629               733.8455
 Red. masses --     5.6011                 3.4120                 4.8031
 Frc consts  --     1.3702                 0.9709                 1.5240
 IR Inten    --    41.7194                53.5045                20.6561

                    34                     35                     36
                     A                      A                      A
 Frequencies --   757.6350               766.1306               813.0587
 Red. masses --    18.1567                 2.7765                 1.6634
 Frc consts  --     6.1406                 0.9602                 0.6479
 IR Inten    --     1.1600                54.9677                14.1291

                    37                     38                     39
                     A                      A                      A
 Frequencies --   821.4233               936.9859               974.3454
 Red. masses --     5.6633                 1.3316                16.1652
 Frc consts  --     2.2514                 0.6888                 9.0419
 IR Inten    --     3.4886                 2.1240               387.1958

                    40                     41                     42
                     A                      A                      A
 Frequencies --  1015.4225              1052.8509              1064.2863
 Red. masses --     1.3488                 1.2965                 2.6014
 Frc consts  --     0.8194                 0.8467                 1.7361
 IR Inten    --     1.5622                 1.6876                 4.0368

                    43                     44                     45
                     A                      A                      A
 Frequencies --  1081.7898              1136.6552              1159.9688
 Red. masses --     4.6162                17.4070                 3.9901
 Frc consts  --     3.1829                13.2505                 3.1632
 IR Inten    --    50.5119               135.3133               158.0444

                    46                     47                     48
                     A                      A                      A
 Frequencies --  1177.0206              1203.7734              1211.2240
 Red. masses --     1.7883                 1.1397                12.2175
 Frc consts  --     1.4597                 0.9730                10.5604
 IR Inten    --    76.8266                13.9098               112.2977

                    49                     50                     51
                     A                      A                      A
 Frequencies --  1216.5928              1227.5355              1241.8621
 Red. masses --     1.7399                13.0800                13.2768
 Frc consts  --     1.5173                11.6125                12.0640
 IR Inten    --   200.6569               110.4198               264.8224

                    52                     53                     54
                     A                      A                      A
 Frequencies --  1278.7066              1318.9469              1374.4451
 Red. masses --    15.6628                 1.5832                 7.3425
 Frc consts  --    15.0890                 1.6227                 8.1724
 IR Inten    --   380.9929                 3.6981                23.6599

                    55                     56                     57
                     A                      A                      A
 Frequencies --  1407.9618              1476.1887              1529.9874
 Red. masses --     2.8766                 2.0149                 2.4617
 Frc consts  --     3.3598                 2.5869                 3.3952
 IR Inten    --   172.4084                14.7306                23.9170

                    58                     59                     60
                     A                      A                      A
 Frequencies --  1624.1655              1629.1782              1819.1900
 Red. masses --     5.4163                 6.2336                10.7114
 Frc consts  --     8.4181                 9.7482                20.8859
 IR Inten    --    15.6242                29.3924               215.7412

                    61                     62                     63
                     A                      A                      A
 Frequencies --  2302.5444              3103.9616              3209.6460
 Red. masses --    13.9699                 1.1014                 1.0890
 Frc consts  --    43.6375                 6.2521                 6.6099
 IR Inten    --   293.6207               221.2975                 1.0726

                    64                     65                     66
                     A                      A                      A
 Frequencies --  3224.4376              3241.2397              3759.4197
 Red. masses --     1.0949                 1.0938                 1.0646
 Frc consts  --     6.7071                 6.7703                 8.8648
 IR Inten    --     2.1324                 0.4076               138.7907

 - Thermochemistry -
 -------------------
 Temperature   298.150 Kelvin.  Pressure   1.00000 Atm.
 Atom     1 has atomic number  6 and mass  12.00000

 Molecular mass:   297.98713 amu.
 Principal axes and moments of inertia in atomic units:
                           1         2         3
     Eigenvalues --  2423.97954********************
           X            1.00000   0.00188  -0.00064
           Y           -0.00189   0.99996  -0.00824
           Z            0.00063   0.00824   0.99997
 This molecule is an asymmetric top.
 Rotational symmetry number  1.
 Warning -- assumption of classical behavior for rotation
           may cause significant error
 Rotational temperatures (Kelvin)      0.03573     0.00827     0.00719
 Rotational constants (GHZ):           0.74454     0.17242     0.14985
 Zero-point vibrational energy     373627.6 (Joules/Mol)
                                   89.29915 (Kcal/Mol)
 Warning -- explicit consideration of  30 degrees of freedom as
           vibrations may cause significant error
 Vibrational temperatures:     25.57    42.45    49.85    65.17    78.80
          (Kelvin)             93.38   136.51   185.86   217.61   268.13
                              283.07   292.76   302.71   355.29   439.45
                              477.08   496.89   517.74   562.23   609.80
                              619.39   710.76   725.01   749.11   783.09
                              804.27   808.80   830.70   864.41   889.61
                              927.11   999.90  1055.84  1090.07  1102.29
                             1169.81  1181.84  1348.11  1401.86  1460.96
                             1514.82  1531.27  1556.45  1635.39  1668.93
                             1693.47  1731.96  1742.68  1750.40  1766.15
                             1786.76  1839.77  1897.67  1977.52  2025.74
                             2123.90  2201.31  2336.81  2344.02  2617.41
                             3312.84  4465.90  4617.96  4639.24  4663.42
                             5408.96

 Zero-point correction=                           0.142307 (Hartree/Particle)
 Thermal correction to Energy=                    0.160247
 Thermal correction to Enthalpy=                  0.161191
 Thermal correction to Gibbs Free Energy=         0.092691
 Sum of electronic and zero-point Energies=          -1490.923916
 Sum of electronic and thermal Energies=             -1490.905976
 Sum of electronic and thermal Enthalpies=           -1490.905032
 Sum of electronic and thermal Free Energies=        -1490.973532

                     E (Thermal)             CV                S
                      KCal/Mol        Cal/Mol-Kelvin    Cal/Mol-Kelvin
 Total                  100.557             63.497            144.171
 Electronic               0.000              0.000              0.000
 Translational            0.889              2.981             42.973
 Rotational               0.889              2.981             34.079
 Vibrational             98.779             57.535             67.119
 Vibration     1          0.593              1.986              6.869
 Vibration     2          0.593              1.984              5.862
 Vibration     3          0.594              1.983              5.544
 Vibration     4          0.595              1.979              5.013
 Vibration     5          0.596              1.976              4.637
 Vibration     6          0.597              1.971              4.302
 Vibration     7          0.603              1.953              3.557
 Vibration     8          0.612              1.924              2.958
 Vibration     9          0.619              1.901              2.656
 Vibration    10          0.632              1.859              2.264
 Vibration    11          0.636              1.844              2.163
 Vibration    12          0.639              1.835              2.101
 Vibration    13          0.643              1.825              2.040
 Vibration    14          0.661              1.768              1.752
 Vibration    15          0.696              1.663              1.387
 Vibration    16          0.714              1.612              1.252
 Vibration    17          0.724              1.585              1.187
 Vibration    18          0.734              1.555              1.123
 Vibration    19          0.758              1.490              0.997
 Vibration    20          0.786              1.418              0.879
 Vibration    21          0.792              1.404              0.857
 Vibration    22          0.850              1.263              0.673
 Vibration    23          0.859              1.241              0.648
 Vibration    24          0.876              1.204              0.608
 Vibration    25          0.899              1.152              0.556
 Vibration    26          0.915              1.120              0.526
 Vibration    27          0.918              1.113              0.520
 Vibration    28          0.934              1.080              0.490
 Vibration    29          0.959              1.030              0.448
 Vibration    30          0.978              0.993              0.419

 Normal termination of Gaussian 09 at Thu Mar  3 17:46:32 2005.
