 Gaussian 09, Revision B.01,
 Gaussian 09:  EM64L-G09RevB.01 12-Aug-2010

 ----------------------------
 # opt freq rb3lyp/6-31G(d,p)
 ----------------------------

 ----------------------------------
 2-HOOC-4-Br-Ph-N2+-RB3LYP-6-31G_dp
 ----------------------------------
 Symbolic Z-matrix:
 Charge =  1 Multiplicity = 1

 SCF Done:  E(RB3LYP) =  -3100.51632973     A.U. after   20 cycles
 SCF Done:  E(RB3LYP) =  -3100.52533465     A.U. after   14 cycles
 SCF Done:  E(RB3LYP) =  -3100.52618960     A.U. after   15 cycles
 SCF Done:  E(RB3LYP) =  -3100.52651645     A.U. after   18 cycles
 SCF Done:  E(RB3LYP) =  -3100.52657472     A.U. after   18 cycles
 SCF Done:  E(RB3LYP) =  -3100.52655800     A.U. after   10 cycles
 SCF Done:  E(RB3LYP) =  -3100.52657734     A.U. after   10 cycles
 SCF Done:  E(RB3LYP) =  -3100.52657783     A.U. after    9 cycles
 SCF Done:  E(RB3LYP) =  -3100.52657783     A.U. after    8 cycles
 SCF Done:  E(RB3LYP) =  -3100.52657786     A.U. after   16 cycles
 Optimization completed.
    -- Stationary point found.
 Normal termination of Gaussian 09 at Thu Apr  7 02:07:17 2005.

 ----------------------------------------------------------------------
 #N Geom=AllCheck Guess=TCheck SCRF=Check GenChk RB3LYP/6-31G(d,p) Freq
 ----------------------------------------------------------------------

 2-HOOC-4-Br-Ph-N2+-RB3LYP-6-31G_dp
 ----------------------------------
 Redundant internal coordinates taken from checkpoint file:
 /home/ubuntu/g09/Gau-22220.chk
 Charge =  1 Multiplicity = 1

                         Standard orientation:
 ---------------------------------------------------------------------
 Center     Atomic      Atomic             Coordinates (Angstroms)
 Number     Number       Type             X           Y           Z
 ---------------------------------------------------------------------
      1          6           0       -0.502306   -1.992189    0.000005
      2          6           0       -1.460747   -0.960828   -0.000003
      3          6           0       -1.108099    0.411092    0.000000
      4          6           0        0.240238    0.727944   -0.000003
      5          6           0        1.210151   -0.291594   -0.000005
      6          6           0        0.838851   -1.645154   -0.000001
      7          1           0       -0.810478   -3.031979    0.000016
      8          1           0        0.541231    1.768511   -0.000002
      9          1           0        1.597684   -2.418794   -0.000008
     10          7           0       -2.783571   -1.351322   -0.000001
     11          7           0       -3.796347   -1.818296   -0.000003
     12         35           0        3.022802    0.169676    0.000001
     13          6           0       -2.195903    1.442147   -0.000001
     14          8           0       -3.366635    1.124004    0.000006
     15          8           0       -1.724102    2.685381   -0.000002
     16          1           0       -2.474288    3.307335   -0.000001
 ---------------------------------------------------------------------

 SCF Done:  E(RB3LYP) =  -3100.52657786     A.U. after    1 cycles

 The electronic state is 1-A.
 Alpha  occ. eigenvalues -- -483.07799 -62.03936 -56.56103 -56.55666 -56.55634
 Alpha  occ. eigenvalues --  -19.36585 -19.31517 -14.72068 -14.68001 -10.50282
 Alpha  occ. eigenvalues --  -10.47646 -10.44653 -10.42554 -10.42041 -10.39930
 Alpha  occ. eigenvalues --  -10.39828  -8.75083  -6.70538  -6.69248  -6.69063
 Alpha  occ. eigenvalues --   -2.82108  -2.81768  -2.81625  -2.80594  -2.80589
 Alpha  occ. eigenvalues --   -1.36455  -1.27953  -1.19315  -1.10868  -1.04055
 Alpha  occ. eigenvalues --   -0.97730  -0.96078  -0.87500  -0.84557  -0.81544
 Alpha  occ. eigenvalues --   -0.75669  -0.71900  -0.71395  -0.70017  -0.68152
 Alpha  occ. eigenvalues --   -0.66367  -0.64695  -0.63798  -0.63291  -0.62544
 Alpha  occ. eigenvalues --   -0.57645  -0.57242  -0.56194  -0.55174  -0.50433
 Alpha  occ. eigenvalues --   -0.48742  -0.46276  -0.45613  -0.44393  -0.42611
 Alpha virt. eigenvalues --   -0.29247  -0.26567  -0.22613  -0.17797  -0.15039
 Alpha virt. eigenvalues --   -0.12790  -0.08011  -0.05849  -0.02318  -0.02163
 Alpha virt. eigenvalues --    0.00212   0.02298   0.04467   0.07549   0.07717

 Mulliken atomic charges:
              1
     1  C   -0.008218
     2  C    0.221713
     3  C    0.098520
     4  C   -0.111419
     5  C    0.071326
     6  C   -0.084082
     7  H    0.186976
     8  H    0.194938
     9  H    0.184573
    10  N    0.113589
    11  N   -0.009329
    12  Br   0.062539
    13  C    0.626594
    14  O   -0.452312
    15  O   -0.464897
    16  H    0.369489
 Sum of Mulliken atomic charges =   1.00000

 Dipole moment (field-independent basis, Debye):
    X=             -3.5840    Y=             -2.4421    Z=              0.0000  Tot=              4.3370
 Quadrupole moment (field-independent basis, Debye-Ang):
   XX=            -53.3956   YY=            -49.2825   ZZ=            -76.5463
   XY=              0.9181   XZ=              0.0000   YZ=              0.0000

  Exact polarizability: 196.616  18.196 113.511   0.000   0.000  41.506
 Approx polarizability: 387.089  62.204 195.678   0.000   0.000  66.673

                     1                      2                      3
                     A                      A                      A
 Frequencies --    65.7577                78.4736               134.7012
 Red. masses --    12.7847                 9.7296                10.7797
 Frc consts  --     0.0326                 0.0353                 0.1152
 IR Inten    --     3.3692                 0.0092                 5.7244

                     4                      5                      6
                     A                      A                      A
 Frequencies --   143.8676               185.0867               240.1427
 Red. masses --     4.8792                12.3032                 7.3127
 Frc consts  --     0.0595                 0.2483                 0.2485
 IR Inten    --     0.3261                 0.8125                 0.0368

                     7                      8                      9
                     A                      A                      A
 Frequencies --   264.0715               284.1512               355.1491
 Red. masses --    10.8627                11.5645                 8.0238
 Frc consts  --     0.4463                 0.5501                 0.5963
 IR Inten    --     7.6754                12.5573                11.6863

                    10                     11                     12
                     A                      A                      A
 Frequencies --   420.1105               431.3386               475.4084
 Red. masses --     3.1053                11.0955                 5.8586
 Frc consts  --     0.3229                 1.2163                 0.7802
 IR Inten    --     6.0369                 4.5702                 2.1307

                    13                     14                     15
                     A                      A                      A
 Frequencies --   557.9423               571.3997               614.2859
 Red. masses --     5.0901                 6.3966                 7.7315
 Frc consts  --     0.9336                 1.2305                 1.7189
 IR Inten    --     4.8135                 6.6477                 5.6813

                    16                     17                     18
                     A                      A                      A
 Frequencies --   626.4291               664.0778               698.2147
 Red. masses --     1.3726                 5.8168                 3.3249
 Frc consts  --     0.3173                 1.5114                 0.9550
 IR Inten    --   113.3833                45.3062                21.1496

                    19                     20                     21
                     A                      A                      A
 Frequencies --   738.1204               769.4752               851.8665
 Red. masses --     5.1061                 6.3273                 1.3682
 Frc consts  --     1.6391                 2.2073                 0.5850
 IR Inten    --    30.2102                21.8618                28.5857

                    22                     23                     24
                     A                      A                      A
 Frequencies --   858.4553               957.8466              1005.1415
 Red. masses --     6.5871                 1.4418                 1.3470
 Frc consts  --     2.8601                 0.7794                 0.8018
 IR Inten    --    32.6637                 9.4798                 0.0160

                    25                     26                     27
                     A                      A                      A
 Frequencies --  1077.2527              1122.0626              1166.5636
 Red. masses --     3.1809                 3.8747                 3.4212
 Frc consts  --     2.1749                 2.8743                 2.7431
 IR Inten    --    72.7299                38.2241               234.8047

                    28                     29                     30
                     A                      A                      A
 Frequencies --  1193.8782              1207.0930              1299.4721
 Red. masses --     1.5888                 1.7042                 1.3643
 Frc consts  --     1.3343                 1.4631                 1.3573
 IR Inten    --     5.6416               211.0181                 1.3121

                    31                     32                     33
                     A                      A                      A
 Frequencies --  1357.9170              1415.3623              1445.7491
 Red. masses --     7.4088                 2.9801                 3.4296
 Frc consts  --     8.0491                 3.5173                 4.2236
 IR Inten    --     9.5595               206.3304                 4.9720

                    34                     35                     36
                     A                      A                      A
 Frequencies --  1500.8489              1588.4963              1608.4290
 Red. masses --     2.7745                 7.6720                 5.6995
 Frc consts  --     3.6822                11.4060                 8.6874
 IR Inten    --    10.3663                42.7148               332.2878

                    37                     38                     39
                     A                      A                      A
 Frequencies --  1822.3318              2346.9539              3225.7486
 Red. masses --    11.5353                13.9611                 1.0917
 Frc consts  --    22.5700                45.3083                 6.6928
 IR Inten    --   178.4113               365.5130                 4.0386

                    40                     41                     42
                     A                      A                      A
 Frequencies --  3238.8725              3245.6177              3739.7923
 Red. masses --     1.0966                 1.0930                 1.0650
 Frc consts  --     6.7779                 6.7836                 8.7758
 IR Inten    --    12.7093                12.7981               206.1146

 - Thermochemistry -
 -------------------
 Temperature   298.150 Kelvin.  Pressure   1.00000 Atm.
 Atom     1 has atomic number  6 and mass  12.00000

 Molecular mass:   226.94561 amu.
 Principal axes and moments of inertia in atomic units:
                           1         2         3
     Eigenvalues --  1301.283534980.134036281.41756
           X            0.99992  -0.01261   0.00000
           Y            0.01261   0.99992   0.00000
           Z            0.00000   0.00000   1.00000
 This molecule is an asymmetric top.
 Rotational symmetry number  1.
 Warning -- assumption of classical behavior for rotation
           may cause significant error
 Rotational temperatures (Kelvin)      0.06656     0.01739     0.01379
 Rotational constants (GHZ):           1.38689     0.36239     0.28731
 Zero-point vibrational energy     272712.4 (Joules/Mol)
                                   65.17983 (Kcal/Mol)
 Warning -- explicit consideration of  15 degrees of freedom as
           vibrations may cause significant error
 Vibrational temperatures:     94.61   112.91   193.80   206.99   266.30
          (Kelvin)            345.51   379.94   408.83   510.98   604.44
                              620.60   684.01   802.75   822.12   883.82
                              901.29   955.46  1004.57  1061.99  1107.10
                             1225.64  1235.12  1378.13  1446.17  1549.92
                             1614.40  1678.42  1717.72  1736.74  1869.65
                             1953.74  2036.39  2080.11  2159.38  2285.49
                             2314.17  2621.93  3376.74  4641.13  4660.01
                             4669.71  5380.72

 Zero-point correction=                           0.103871 (Hartree/Particle)
 Thermal correction to Energy=                    0.114210
 Thermal correction to Enthalpy=                  0.115155
 Thermal correction to Gibbs Free Energy=         0.066298
 Sum of electronic and zero-point Energies=          -3100.422707
 Sum of electronic and thermal Energies=             -3100.412367
 Sum of electronic and thermal Enthalpies=           -3100.411423
 Sum of electronic and thermal Free Energies=        -3100.460280

                     E (Thermal)             CV                S
                      KCal/Mol        Cal/Mol-Kelvin    Cal/Mol-Kelvin
 Total                   71.668             37.681            102.827
 Electronic               0.000              0.000              0.000
 Translational            0.889              2.981             42.161
 Rotational               0.889              2.981             32.076
 Vibrational             69.891             31.720             28.590
 Vibration     1          0.597              1.971              4.276
 Vibration     2          0.600              1.964              3.929
 Vibration     3          0.613              1.919              2.878
 Vibration     4          0.616              1.909              2.752
 Vibration     5          0.631              1.860              2.276
 Vibration     6          0.657              1.779              1.802
 Vibration     7          0.671              1.739              1.635
 Vibration     8          0.683              1.703              1.509
 Vibration     9          0.731              1.565              1.143
 Vibration    10          0.783              1.427              0.892
 Vibration    11          0.792              1.402              0.854
 Vibration    12          0.832              1.305              0.723
 Vibration    13          0.913              1.122              0.528
 Vibration    14          0.928              1.093              0.502
 Vibration    15          0.974              1.002              0.426

 Optimization completed.
    -- Stationary point found.
 Normal termination of Gaussian 09 at Thu Apr  7 02:09:39 2005.
