 Gaussian 09, Revision B.01,
 Gaussian 09:  EM64L-G09RevB.01 12-Aug-2010

 ----------------------------
 # opt freq rb3lyp/6-31G(d,p)
 ----------------------------

 -------------------------------------
 2-HOOC-4-Br-Ph-N2-OTf-RB3LYP-6-31G_dp
 -------------------------------------
 Symbolic Z-matrix:
 Charge =  0 Multiplicity = 1

 SCF Done:  E(RB3LYP) =  -4062.08971370     A.U. after   33 cycles
 SCF Done:  E(RB3LYP) =  -4062.12702269     A.U. after   20 cycles
 SCF Done:  E(RB3LYP) =  -4062.14056253     A.U. after   18 cycles
 SCF Done:  E(RB3LYP) =  -4062.14936681     A.U. after   16 cycles
 SCF Done:  E(RB3LYP) =  -4062.16006247     A.U. after   15 cycles
 SCF Done:  E(RB3LYP) =  -4062.16173111     A.U. after   13 cycles
 SCF Done:  E(RB3LYP) =  -4062.15926484     A.U. after   14 cycles
 SCF Done:  E(RB3LYP) =  -4062.16261560     A.U. after   14 cycles
 SCF Done:  E(RB3LYP) =  -4062.16303607     A.U. after   13 cycles
 SCF Done:  E(RB3LYP) =  -4062.16337283     A.U. after   14 cycles
 SCF Done:  E(RB3LYP) =  -4062.16537152     A.U. after   11 cycles
 SCF Done:  E(RB3LYP) =  -4062.16537555     A.U. after   11 cycles
 SCF Done:  E(RB3LYP) =  -4062.16537985     A.U. after   10 cycles
 SCF Done:  E(RB3LYP) =  -4062.16538187     A.U. after    9 cycles
 SCF Done:  E(RB3LYP) =  -4062.16538234     A.U. after    8 cycles
 SCF Done:  E(RB3LYP) =  -4062.16538255     A.U. after    8 cycles
 SCF Done:  E(RB3LYP) =  -4062.16538252     A.U. after    8 cycles
 SCF Done:  E(RB3LYP) =  -4062.16538236     A.U. after    7 cycles
 SCF Done:  E(RB3LYP) =  -4062.16538223     A.U. after    7 cycles
 Optimization completed.
    -- Stationary point found.
 Normal termination of Gaussian 09 at Thu Mar  3 17:07:20 2005.

 ----------------------------------------------------------------------
 #N Geom=AllCheck Guess=TCheck SCRF=Check GenChk RB3LYP/6-31G(d,p) Freq
 ----------------------------------------------------------------------

 2-HOOC-4-Br-Ph-N2-OTf-RB3LYP-6-31G_dp
 -------------------------------------
 Redundant internal coordinates taken from checkpoint file:
 Ph-N2-OTf-N2-Ph.chk
 Charge =  0 Multiplicity = 1

                         Standard orientation:
 ---------------------------------------------------------------------
 Center     Atomic      Atomic             Coordinates (Angstroms)
 Number     Number       Type             X           Y           Z
 ---------------------------------------------------------------------
      1          6           0       -0.680470   -0.613239   -0.342252
      2          6           0       -0.771118    0.776943   -0.204061
      3          6           0       -1.995697    1.454946   -0.022924
      4          6           0       -3.154590    0.688561    0.038599
      5          6           0       -3.080113   -0.703196   -0.093091
      6          6           0       -1.859495   -1.351606   -0.285800
      7          1           0        0.298816   -1.073267   -0.499528
      8          1           0       -4.108900    1.176203    0.188053
      9          1           0       -1.821268   -2.429766   -0.387444
     10          7           0        0.420425    1.489701   -0.274977
     11          7           0        1.502945    1.776937   -0.221667
     12         16           0        2.998161   -0.908600    0.395602
     13          8           0        2.414713    0.233652    1.188128
     14          8           0        3.368145   -2.077507    1.197971
     15          8           0        2.222048   -1.161835   -0.851074
     16          6           0        4.599403   -0.205312   -0.237480
     17          9           0        5.410942    0.109326    0.777982
     18          9           0        4.361708    0.910732   -0.951575
     19          9           0        5.221218   -1.087691   -1.027883
     20         35           0       -4.674769   -1.718058   -0.010292
     21          6           0       -2.017867    2.941150    0.105570
     22          8           0       -1.019787    3.629039    0.061973
     23          8           0       -3.259144    3.428460    0.268428
     24          1           0       -3.178815    4.394729    0.344538
 ---------------------------------------------------------------------

 SCF Done:  E(RB3LYP) =  -4062.16538223     A.U. after    1 cycles

 The electronic state is 1-A.
 Alpha  occ. eigenvalues -- -482.96476 -89.08586 -61.92632 -56.44785 -56.44349
 Alpha  occ. eigenvalues --  -56.44345 -24.71562 -24.71342 -24.71310 -19.25779
 Alpha  occ. eigenvalues --  -19.20318 -19.12264 -19.11422 -19.10949 -14.55195
 Alpha  occ. eigenvalues --  -14.53638 -10.41810 -10.38987 -10.34101 -10.32037
 Alpha  occ. eigenvalues --  -10.29849 -10.27841 -10.27334 -10.27190  -8.63775
 Alpha  occ. eigenvalues --   -8.10893  -6.59209  -6.57906  -6.57817  -6.07354
 Alpha  occ. eigenvalues --   -6.07318  -6.07291  -2.70777  -2.70416  -2.70348
 Alpha  occ. eigenvalues --   -2.69308  -2.69307  -1.29295  -1.20636  -1.20544
 Alpha  occ. eigenvalues --   -1.20530  -1.16923  -1.09434  -1.08004  -0.97091
 Alpha  occ. eigenvalues --   -0.96385  -0.95808  -0.90781  -0.85147  -0.83255
 Alpha  occ. eigenvalues --   -0.75331  -0.72052  -0.70696  -0.68924  -0.63001
 Alpha  occ. eigenvalues --   -0.61591  -0.57859  -0.57302  -0.56984  -0.56916
 Alpha  occ. eigenvalues --   -0.56622  -0.54473  -0.54370  -0.52106  -0.51439
 Alpha  occ. eigenvalues --   -0.51149  -0.50662  -0.50402  -0.46112  -0.45289
 Alpha  occ. eigenvalues --   -0.44809  -0.44567  -0.44057  -0.43679  -0.42953
 Alpha  occ. eigenvalues --   -0.42770  -0.41989  -0.40672  -0.40599  -0.38565
 Alpha  occ. eigenvalues --   -0.38449  -0.37450  -0.34478  -0.33590  -0.33563
 Alpha  occ. eigenvalues --   -0.31906  -0.31451  -0.30879  -0.28485  -0.28270
 Alpha  occ. eigenvalues --   -0.27400  -0.24292
 Alpha virt. eigenvalues --   -0.15195  -0.11558  -0.10354  -0.04476  -0.04234
 Alpha virt. eigenvalues --   -0.00977   0.02900   0.07206   0.10247   0.10732
 Alpha virt. eigenvalues --    0.11714   0.12305   0.12556   0.12946   0.13420

 Mulliken atomic charges:
              1
     1  C    0.011575
     2  C    0.203279
     3  C    0.083138
     4  C   -0.125431
     5  C    0.072109
     6  C   -0.108522
     7  H    0.227553
     8  H    0.163192
     9  H    0.160700
    10  N    0.089804
    11  N   -0.003726
    12  S    1.154595
    13  O   -0.601185
    14  O   -0.509868
    15  O   -0.618944
    16  C    0.573778
    17  F   -0.240142
    18  F   -0.256500
    19  F   -0.240515
    20  Br  -0.041056
    21  C    0.596556
    22  O   -0.455002
    23  O   -0.483193
    24  H    0.347805
 Sum of Mulliken atomic charges =   0.00000

 Dipole moment (field-independent basis, Debye):
    X=            -12.1442    Y=              4.9969    Z=             -1.9533  Tot=             13.2765
 Quadrupole moment (field-independent basis, Debye-Ang):
   XX=           -135.4605   YY=           -118.9419   ZZ=           -133.1362
   XY=              1.6657   XZ=             -6.2697   YZ=              2.7718

  Exact polarizability: 265.880   4.125 174.050   5.833  -1.812  79.189
 Approx polarizability: 395.336  26.206 301.656  12.879  -8.415 142.453

                     1                      2                      3
                     A                      A                      A
 Frequencies --    15.0437                25.4728                31.9702
 Red. masses --    15.6264                12.1343                18.2684
 Frc consts  --     0.0021                 0.0046                 0.0110
 IR Inten    --     0.6285                 0.4782                 1.9770

                     4                      5                      6
                     A                      A                      A
 Frequencies --    38.7196                50.2801                60.7057
 Red. masses --    13.1354                14.2933                13.8704
 Frc consts  --     0.0116                 0.0213                 0.0301
 IR Inten    --     1.2578                 0.7792                 3.4140

                     7                      8                      9
                     A                      A                      A
 Frequencies --    82.8887                90.7869               142.9121
 Red. masses --    13.4601                10.9373                10.6547
 Frc consts  --     0.0545                 0.0531                 0.1282
 IR Inten    --     0.5092                 4.5495                10.0714

                    10                     11                     12
                     A                      A                      A
 Frequencies --   148.1449               151.6488               196.0983
 Red. masses --     5.5117                 9.9456                16.4377
 Frc consts  --     0.0713                 0.1348                 0.3724
 IR Inten    --     1.5510                11.8504                24.2891

                    13                     14                     15
                     A                      A                      A
 Frequencies --   205.8947               214.7784               250.5419
 Red. masses --    15.4758                13.8809                 8.5482
 Frc consts  --     0.3865                 0.3773                 0.3161
 IR Inten    --    44.7493                52.1212                25.7079

                    16                     17                     18
                     A                      A                      A
 Frequencies --   273.5411               296.8875               305.9992
 Red. masses --    16.0188                 8.1260                17.6220
 Frc consts  --     0.7062                 0.4220                 0.9722
 IR Inten    --     1.0930                27.8448                 1.1931

                    19                     20                     21
                     A                      A                      A
 Frequencies --   333.0739               346.0571               365.2716
 Red. masses --    16.6334                17.0996                 8.6864
 Frc consts  --     1.0872                 1.2065                 0.6828
 IR Inten    --     0.2260                22.4637                 6.4400

                    22                     23                     24
                     A                      A                      A
 Frequencies --   425.9216               430.9416               455.6939
 Red. masses --     5.4434                 5.7295                 6.1459
 Frc consts  --     0.5818                 0.6269                 0.7519
 IR Inten    --    13.6961                 1.1175                25.0382

                    25                     26                     27
                     A                      A                      A
 Frequencies --   493.9514               505.3564               543.0643
 Red. masses --    17.7129                16.8580                 4.3403
 Frc consts  --     2.5463                 2.5366                 0.7542
 IR Inten    --    15.7733                45.2728                27.7184

                    28                     29                     30
                     A                      A                      A
 Frequencies --   558.2011               561.9039               576.3997
 Red. masses --    17.8666                16.2585                 6.0664
 Frc consts  --     3.2800                 3.0245                 1.1875
 IR Inten    --     3.6082                17.7140                12.6282

                    31                     32                     33
                     A                      A                      A
 Frequencies --   609.5874               611.6776               619.7865
 Red. masses --     8.1283                 1.3734                16.0368
 Frc consts  --     1.7796                 0.3028                 3.6295
 IR Inten    --    92.7019               104.5124               129.8888

                    34                     35                     36
                     A                      A                      A
 Frequencies --   663.0674               705.6245               740.3650
 Red. masses --     5.7655                 3.8123                 5.2038
 Frc consts  --     1.4935                 1.1184                 1.6806
 IR Inten    --    40.9001                15.9597                20.0778

                    37                     38                     39
                     A                      A                      A
 Frequencies --   757.7677               777.0011               856.4041
 Red. masses --    18.2111                 6.3104                 6.9778
 Frc consts  --     6.1611                 2.2446                 3.0153
 IR Inten    --     1.1229                25.1392                36.3404

                    40                     41                     42
                     A                      A                      A
 Frequencies --   899.9876               946.5955               973.5109
 Red. masses --     1.3443                 1.4345                16.5386
 Frc consts  --     0.6415                 0.7573                 9.2349
 IR Inten    --    26.7667                 5.0988               424.2508

                    43                     44                     45
                     A                      A                      A
 Frequencies --  1057.9519              1083.4359              1105.9106
 Red. masses --     1.2832                 4.0143                 3.5643
 Frc consts  --     0.8462                 2.7763                 2.5684
 IR Inten    --     1.4453                37.1591                76.6271

                    46                     47                     48
                     A                      A                      A
 Frequencies --  1138.9796              1166.5151              1191.8184
 Red. masses --    11.6870                 3.8831                 1.6490
 Frc consts  --     8.9327                 3.1132                 1.3800
 IR Inten    --   125.2929               184.0001               101.0492

                    49                     50                     51
                     A                      A                      A
 Frequencies --  1210.7433              1213.6818              1227.7418
 Red. masses --    11.2801                 1.6548                13.4548
 Frc consts  --     9.7424                 1.4362                11.9493
 IR Inten    --    98.5537               180.4823               121.0801

                    52                     53                     54
                     A                      A                      A
 Frequencies --  1243.1952              1278.7324              1310.4625
 Red. masses --    13.2771                13.0216                 1.4327
 Frc consts  --    12.0901                12.5451                 1.4496
 IR Inten    --   263.5201               390.9187                 5.7514

                    55                     56                     57
                     A                      A                      A
 Frequencies --  1355.7642              1403.0587              1434.3062
 Red. masses --     8.8878                 2.9019                 3.2886
 Frc consts  --     9.6253                 3.3658                 3.9861
 IR Inten    --     8.0705               197.6590                 7.3923

                    58                     59                     60
                     A                      A                      A
 Frequencies --  1513.5236              1604.4305              1612.3937
 Red. masses --     2.3462                 8.1856                 5.6107
 Frc consts  --     3.1667                12.4148                 8.5943
 IR Inten    --    41.4287                40.8612               134.7887

                    61                     62                     63
                     A                      A                      A
 Frequencies --  1822.4887              2294.9312              3085.4075
 Red. masses --    10.8411                13.9711                 1.1018
 Frc consts  --    21.2155                43.3531                 6.1800
 IR Inten    --   209.4233               277.5942               272.2888

                    64                     65                     66
                     A                      A                      A
 Frequencies --  3234.9325              3250.7988              3758.3469
 Red. masses --     1.0929                 1.0925                 1.0646
 Frc consts  --     6.7387                 6.8022                 8.8601
 IR Inten    --     2.8917                 5.2895               145.9108

 - Thermochemistry -
 -------------------
 Temperature   298.150 Kelvin.  Pressure   1.00000 Atm.
 Atom     1 has atomic number  6 and mass  12.00000

 Molecular mass:   375.89764 amu.
 Principal axes and moments of inertia in atomic units:
                           1         2         3
     Eigenvalues --  4219.94253********************
           X            0.99973  -0.02329   0.00075
           Y            0.02329   0.99972   0.00282
           Z           -0.00082  -0.00280   1.00000
 This molecule is an asymmetric top.
 Rotational symmetry number  1.
 Warning -- assumption of classical behavior for rotation
           may cause significant error
 Rotational temperatures (Kelvin)      0.02052     0.00504     0.00421
 Rotational constants (GHZ):           0.42767     0.10507     0.08781
 Zero-point vibrational energy     346552.6 (Joules/Mol)
                                   82.82807 (Kcal/Mol)
 Warning -- explicit consideration of  33 degrees of freedom as
           vibrations may cause significant error
 Vibrational temperatures:     21.64    36.65    46.00    55.71    72.34
          (Kelvin)             87.34   119.26   130.62   205.62   213.15
                              218.19   282.14   296.24   309.02   360.47
                              393.56   427.15   440.26   479.22   497.90
                              525.54   612.81   620.03   655.64   710.69
                              727.09   781.35   803.13   808.45   829.31
                              877.06   880.07   891.73   954.00  1015.23
                             1065.22  1090.26  1117.93  1232.17  1294.88
                             1361.94  1400.66  1522.15  1558.82  1591.16
                             1638.74  1678.35  1714.76  1741.99  1746.22
                             1766.44  1788.68  1839.81  1885.46  1950.64
                             2018.69  2063.64  2177.62  2308.41  2319.87
                             2622.15  3301.89  4439.21  4654.34  4677.17
                             5407.42

 Zero-point correction=                           0.131995 (Hartree/Particle)
 Thermal correction to Energy=                    0.151430
 Thermal correction to Enthalpy=                  0.152374
 Thermal correction to Gibbs Free Energy=         0.079126
 Sum of electronic and zero-point Energies=          -4062.033387
 Sum of electronic and thermal Energies=             -4062.013952
 Sum of electronic and thermal Enthalpies=           -4062.013008
 Sum of electronic and thermal Free Energies=        -4062.086257

                     E (Thermal)             CV                S
                      KCal/Mol        Cal/Mol-Kelvin    Cal/Mol-Kelvin
 Total                   95.024             67.639            154.165
 Electronic               0.000              0.000              0.000
 Translational            0.889              2.981             43.665
 Rotational               0.889              2.981             35.653
 Vibrational             93.246             61.677             74.847
 Vibration     1          0.593              1.986              7.200
 Vibration     2          0.593              1.985              6.154
 Vibration     3          0.594              1.983              5.703
 Vibration     4          0.594              1.981              5.324
 Vibration     5          0.595              1.977              4.806
 Vibration     6          0.597              1.973              4.434
 Vibration     7          0.600              1.961              3.821
 Vibration     8          0.602              1.956              3.643
 Vibration     9          0.616              1.910              2.765
 Vibration    10          0.618              1.905              2.696
 Vibration    11          0.619              1.901              2.651
 Vibration    12          0.636              1.845              2.169
 Vibration    13          0.640              1.831              2.080
 Vibration    14          0.645              1.818              2.003
 Vibration    15          0.663              1.762              1.727
 Vibration    16          0.676              1.722              1.574
 Vibration    17          0.691              1.680              1.434
 Vibration    18          0.696              1.662              1.384
 Vibration    19          0.715              1.609              1.245
 Vibration    20          0.724              1.583              1.184
 Vibration    21          0.738              1.544              1.100
 Vibration    22          0.788              1.414              0.872
 Vibration    23          0.792              1.403              0.856
 Vibration    24          0.814              1.348              0.779
 Vibration    25          0.850              1.263              0.673
 Vibration    26          0.861              1.238              0.645
 Vibration    27          0.898              1.155              0.559
 Vibration    28          0.914              1.122              0.527
 Vibration    29          0.918              1.114              0.520
 Vibration    30          0.933              1.082              0.492
 Vibration    31          0.969              1.012              0.433
 Vibration    32          0.971              1.007              0.430
 Vibration    33          0.980              0.990              0.417

 Optimization completed.
    -- Stationary point found.
 Normal termination of Gaussian 09 at Thu Mar  3 17:15:52 2005.
