 Gaussian 09, Revision B.01,
 Gaussian 09:  EM64L-G09RevB.01 12-Aug-2010

 ----------------------------------------------------------------------
 #p Temperature=298.15 opt=(maxcycles=1024) SCF=(maxcycles=1024) freq R
 B3LYP/aug-cc-pVDZ
 ----------------------------------------------------------------------

 ----------------------------------------
 2-HOOC-Ph-N2+-RB3LYP-aug-cc-pVDZ-Singlet
 ----------------------------------------
 Symbolic Z-matrix:
 Charge =  1 Multiplicity = 1

 SCF Done:  E(RB3LYP) =  -529.476109964     A.U. after   17 cycles
 SCF Done:  E(RB3LYP) =  -529.484385979     A.U. after   16 cycles
 SCF Done:  E(RB3LYP) =  -529.485148686     A.U. after   17 cycles
 SCF Done:  E(RB3LYP) =  -529.485377694     A.U. after   18 cycles
 SCF Done:  E(RB3LYP) =  -529.485405735     A.U. after   18 cycles
 SCF Done:  E(RB3LYP) =  -529.485383410     A.U. after   13 cycles
 SCF Done:  E(RB3LYP) =  -529.485447867     A.U. after   18 cycles
 SCF Done:  E(RB3LYP) =  -529.485448676     A.U. after   11 cycles
 SCF Done:  E(RB3LYP) =  -529.485448740     A.U. after   24 cycles
 SCF Done:  E(RB3LYP) =  -529.485448816     A.U. after   11 cycles
 Optimization completed.
    -- Stationary point found.
 Normal termination of Gaussian 09 at Sat May 26 05:28:08 2018.

 ----------------------------------------------------------------------
 #P Geom=AllCheck Guess=TCheck SCRF=Check GenChk RB3LYP/Aug-CC-pVDZ Fre
 q
 ----------------------------------------------------------------------

 2-HOOC-Ph-N2+-RB3LYP-aug-cc-pVDZ-Singlet
 ----------------------------------------
 Redundant internal coordinates taken from checkpoint file:
 /home/ubuntu/g09/Gau-27456.chk
 Charge =  1 Multiplicity = 1

                         Standard orientation:
 ---------------------------------------------------------------------
 Center     Atomic      Atomic             Coordinates (Angstroms)
 Number     Number       Type             X           Y           Z
 ---------------------------------------------------------------------
      1          6           0        1.834251    1.009174    0.000015
      2          6           0        0.451097    0.761334   -0.000002
      3          6           0       -0.113593   -0.535214   -0.000020
      4          6           0        0.772996   -1.608857   -0.000027
      5          6           0        2.159740   -1.389758   -0.000010
      6          6           0        2.686984   -0.093256    0.000014
      7          1           0        2.217259    2.028354    0.000013
      8          1           0        0.374823   -2.621571   -0.000047
      9          1           0        2.834943   -2.245236   -0.000016
     10          1           0        3.764587    0.065297    0.000043
     11          7           0       -0.369153    1.889973    0.000004
     12          7           0       -0.869639    2.882594    0.000009
     13          6           0       -1.603749   -0.683803   -0.000015
     14          8           0       -2.338028    0.282089   -0.000033
     15          8           0       -1.996546   -1.957328    0.000047
     16          1           0       -2.969832   -1.990623    0.000070
 ---------------------------------------------------------------------

 SCF Done:  E(RB3LYP) =  -529.485448816     A.U. after    2 cycles

 The electronic state is 1-A.
 Alpha  occ. eigenvalues --  -19.36680 -19.31723 -14.72139 -14.68337 -10.50453
 Alpha  occ. eigenvalues --  -10.48025 -10.42375 -10.41821 -10.39853 -10.39556
 Alpha  occ. eigenvalues --  -10.39534  -1.37494  -1.28828  -1.20282  -1.11062
 Alpha  occ. eigenvalues --   -1.02696  -0.97749  -0.90761  -0.84882  -0.81911
 Alpha  occ. eigenvalues --   -0.76532  -0.72590  -0.71750  -0.71595  -0.68963
 Alpha  occ. eigenvalues --   -0.66950  -0.65717  -0.64063  -0.63815  -0.63280
 Alpha  occ. eigenvalues --   -0.58205  -0.57448  -0.56294  -0.55897  -0.49974
 Alpha  occ. eigenvalues --   -0.47380  -0.46482  -0.46401
 Alpha virt. eigenvalues --   -0.29935  -0.27277  -0.23485  -0.18717  -0.14529
 Alpha virt. eigenvalues --   -0.14023  -0.12209  -0.11401  -0.10909  -0.09499
 Alpha virt. eigenvalues --   -0.09074  -0.07850  -0.06508  -0.05872  -0.05462

 Mulliken atomic charges:
              1
     1  C    1.075793
     2  C    0.143308
     3  C    1.933820
     4  C    0.802966
     5  C    0.430113
     6  C    0.338889
     7  H   -0.863244
     8  H   -0.872915
     9  H   -0.712963
    10  H   -0.683160
    11  N    0.508424
    12  N   -0.756461
    13  C    0.383659
    14  O   -0.499769
    15  O   -0.540196
    16  H    0.311735
 Sum of Mulliken atomic charges =   1.00000

 Dipole moment (field-independent basis, Debye):
    X=              3.4170    Y=              0.3323    Z=              0.0001  Tot=              3.4331
 Quadrupole moment (field-independent basis, Debye-Ang):
   XX=            -36.6264   YY=            -39.0276   ZZ=            -60.4541
   XY=              4.6165   XZ=             -0.0002   YZ=              0.0001

  Exact polarizability: 127.774 -11.757 126.510   0.005   0.003  51.144
 Approx polarizability: 212.997 -42.008 242.388   0.001   0.001  80.975

                     1                      2                      3
                     A                      A                      A
 Frequencies --    68.2365               118.7469               184.0795
 Red. masses --    13.1601                 4.6103                 5.6129
 Frc consts  --     0.0361                 0.0383                 0.1121
 IR Inten    --     2.5382                 0.0246                 0.7841

                     4                      5                      6
                     A                      A                      A
 Frequencies --   187.2173               204.8302               344.7812
 Red. masses --    11.0604                 6.9236                 9.0913
 Frc consts  --     0.2284                 0.1711                 0.6367
 IR Inten    --     0.9900                 9.4648                15.0997

                     7                      8                      9
                     A                      A                      A
 Frequencies --   394.5358               420.5164               436.3926
 Red. masses --     3.9166                11.0852                 3.5224
 Frc consts  --     0.3592                 1.1549                 0.3952
 IR Inten    --     0.1059                 9.9968                 8.6450

                    10                     11                     12
                     A                      A                      A
 Frequencies --   521.4708               560.7084               571.3538
 Red. masses --     9.2039                 5.7221                 6.1985
 Frc consts  --     1.4746                 1.0599                 1.1922
 IR Inten    --     1.4876                 5.1012                 3.9024

                    13                     14                     15
                     A                      A                      A
 Frequencies --   623.0446               639.4424               696.2353
 Red. masses --     1.3300                 5.7132                 2.5334
 Frc consts  --     0.3042                 1.3764                 0.7235
 IR Inten    --    48.2114                38.5285                83.6651

                    16                     17                     18
                     A                      A                      A
 Frequencies --   726.2354               777.9246               808.3634
 Red. masses --     4.8295                 1.5148                 2.8448
 Frc consts  --     1.5007                 0.5401                 1.0953
 IR Inten    --    29.6460                57.8016                 0.0053

                    19                     20                     21
                     A                      A                      A
 Frequencies --   809.1592               918.0991               998.4917
 Red. masses --     5.7788                 1.5195                 1.3829
 Frc consts  --     2.2292                 0.7546                 0.8123
 IR Inten    --     7.2349                 0.0013                 0.9603

                    22                     23                     24
                     A                      A                      A
 Frequencies --  1044.4579              1052.4538              1079.5467
 Red. masses --     1.4374                 2.4868                 5.0162
 Frc consts  --     0.9239                 1.6229                 3.4444
 IR Inten    --     0.2299                 3.6896                13.3293

                    25                     26                     27
                     A                      A                      A
 Frequencies --  1142.3074              1166.6801              1193.7022
 Red. masses --     3.8947                 1.6798                 1.0990
 Frc consts  --     2.9943                 1.3471                 0.9227
 IR Inten    --   143.4057                14.5322                 2.1740

                    28                     29                     30
                     A                      A                      A
 Frequencies --  1209.4386              1295.2845              1376.1453
 Red. masses --     1.7259                 1.5053                 7.5148
 Frc consts  --     1.4874                 1.4880                 8.3848
 IR Inten    --   204.6671                 2.3811                64.8668

                    31                     32                     33
                     A                      A                      A
 Frequencies --  1401.2657              1451.5406              1505.0201
 Red. masses --     2.8738                 2.1553                 2.7379
 Frc consts  --     3.3246                 2.6755                 3.6538
 IR Inten    --   120.6918                15.9962                 2.2109

                    34                     35                     36
                     A                      A                      A
 Frequencies --  1602.4967              1616.7097              1780.5297
 Red. masses --     5.6096                 6.5690                10.9123
 Frc consts  --     8.4875                10.1160                20.3828
 IR Inten    --    69.9267                16.6864               225.7812

                    37                     38                     39
                     A                      A                      A
 Frequencies --  2352.3854              3206.1735              3213.6551
 Red. masses --    13.9672                 1.0898                 1.0928
 Frc consts  --    45.5382                 6.6007                 6.6495
 IR Inten    --   138.6664                 0.1393                 3.2044

                    40                     41                     42
                     A                      A                      A
 Frequencies --  3222.9527              3229.1783              3716.9235
 Red. masses --     1.0979                 1.0959                 1.0651
 Frc consts  --     6.7194                 6.7330                 8.6700
 IR Inten    --    11.4608                 7.4907               209.8671

 - Thermochemistry -
 -------------------
 Temperature   298.150 Kelvin.  Pressure   1.00000 Atm.
 Atom     1 has atomic number  6 and mass  12.00000

 Molecular mass:   149.03510 amu.
 Principal axes and moments of inertia in atomic units:
                           1         2         3
     Eigenvalues --  1183.412571512.444932695.85750
           X            0.99943   0.03379   0.00000
           Y           -0.03379   0.99943   0.00000
           Z            0.00000   0.00000   1.00000
 This molecule is an asymmetric top.
 Rotational symmetry number  1.
 Warning -- assumption of classical behavior for rotation
           may cause significant error
 Rotational temperatures (Kelvin)      0.07319     0.05727     0.03213
 Rotational constants (GHZ):           1.52503     1.19326     0.66945
 Zero-point vibrational energy     298281.1 (Joules/Mol)
                                   71.29090 (Kcal/Mol)
 Warning -- explicit consideration of  12 degrees of freedom as
           vibrations may cause significant error
 Vibrational temperatures:     98.18   170.85   264.85   269.36   294.70
          (Kelvin)            496.06   567.65   605.03   627.87   750.28
                              806.73   822.05   896.42   920.01  1001.73
                             1044.89  1119.26  1163.05  1164.20  1320.94
                             1436.61  1502.74  1514.24  1553.22  1643.52
                             1678.59  1717.47  1740.11  1863.62  1979.96
                             2016.11  2088.44  2165.39  2305.63  2326.08
                             2561.78  3384.55  4612.96  4623.73  4637.10
                             4646.06  5347.82

 Zero-point correction=                           0.113609 (Hartree/Particle)
 Thermal correction to Energy=                    0.122510
 Thermal correction to Enthalpy=                  0.123454
 Thermal correction to Gibbs Free Energy=         0.079218
 Sum of electronic and zero-point Energies=           -529.371840
 Sum of electronic and thermal Energies=              -529.362939
 Sum of electronic and thermal Enthalpies=            -529.361995
 Sum of electronic and thermal Free Energies=         -529.406231

                     E (Thermal)             CV                S
                      KCal/Mol        Cal/Mol-Kelvin    Cal/Mol-Kelvin
 Total                   76.876             33.576             93.102
 Electronic               0.000              0.000              0.000
 Translational            0.889              2.981             40.907
 Rotational               0.889              2.981             29.957
 Vibrational             75.099             27.614             22.237
 Vibration     1          0.598              1.969              4.204
 Vibration     2          0.609              1.934              3.121
 Vibration     3          0.631              1.862              2.287
 Vibration     4          0.632              1.857              2.255
 Vibration     5          0.640              1.833              2.089
 Vibration     6          0.723              1.586              1.190
 Vibration     7          0.762              1.482              0.983
 Vibration     8          0.783              1.426              0.890
 Vibration     9          0.797              1.391              0.838
 Vibration    10          0.876              1.202              0.607
 Vibration    11          0.916              1.116              0.522
 Vibration    12          0.928              1.093              0.502

 Optimization completed.
    -- Stationary point found.
 Normal termination of Gaussian 09 at Sat May 26 05:41:48 2018.
