 Gaussian 09, Revision B.01,
 Gaussian 09:  EM64L-G09RevB.01 12-Aug-2010

 ----------------------------
 # opt freq rb3lyp/6-31G(d,p)
 ----------------------------

 -----------------------------
 2-HOOC-Ph-N2+-RB3LYP-6-31G_dp
 -----------------------------
 Symbolic Z-matrix:
 Charge =  1 Multiplicity = 1

 SCF Done:  E(RB3LYP) =  -529.418295215     A.U. after   18 cycles
 SCF Done:  E(RB3LYP) =  -529.426792545     A.U. after   14 cycles
 SCF Done:  E(RB3LYP) =  -529.427613597     A.U. after   16 cycles
 SCF Done:  E(RB3LYP) =  -529.428053337     A.U. after   18 cycles
 SCF Done:  E(RB3LYP) =  -529.428118383     A.U. after   18 cycles
 SCF Done:  E(RB3LYP) =  -529.428100302     A.U. after   11 cycles
 SCF Done:  E(RB3LYP) =  -529.428122613     A.U. after   10 cycles
 SCF Done:  E(RB3LYP) =  -529.428123449     A.U. after    9 cycles
 SCF Done:  E(RB3LYP) =  -529.428123464     A.U. after    8 cycles
 SCF Done:  E(RB3LYP) =  -529.428123506     A.U. after   17 cycles
 Optimization completed.
    -- Stationary point found.
 Normal termination of Gaussian 09 at Thu Apr  7 02:12:35 2005.

 ----------------------------------------------------------------------
 #N Geom=AllCheck Guess=TCheck SCRF=Check GenChk RB3LYP/6-31G(d,p) Freq
 ----------------------------------------------------------------------

 2-HOOC-Ph-N2+-RB3LYP-6-31G_dp
 -----------------------------
 Redundant internal coordinates taken from checkpoint file:
 /home/ubuntu/g09/Gau-23640.chk
 Charge =  1 Multiplicity = 1

                         Standard orientation:
 ---------------------------------------------------------------------
 Center     Atomic      Atomic             Coordinates (Angstroms)
 Number     Number       Type             X           Y           Z
 ---------------------------------------------------------------------
      1          6           0       -1.825188    1.019210    0.000021
      2          6           0       -0.443817    0.763520   -0.000006
      3          6           0        0.107713   -0.538182    0.000010
      4          6           0       -0.784117   -1.603870    0.000003
      5          6           0       -2.167309   -1.374118   -0.000004
      6          6           0       -2.684026   -0.075082    0.000007
      7          1           0       -2.199819    2.036786    0.000050
      8          1           0       -0.391565   -2.614080    0.000011
      9          1           0       -2.845915   -2.220817   -0.000009
     10          1           0       -3.755702    0.090461   -0.000001
     11          7           0        0.383088    1.878801   -0.000023
     12          7           0        0.893042    2.868648   -0.000054
     13          6           0        1.596450   -0.692388    0.000013
     14          8           0        2.330967    0.274450    0.000097
     15          8           0        1.982246   -1.964486   -0.000062
     16          1           0        2.956155   -1.998765   -0.000052
 ---------------------------------------------------------------------

 SCF Done:  E(RB3LYP) =  -529.428123506     A.U. after    1 cycles

 The electronic state is 1-A.
 Alpha  occ. eigenvalues --  -19.36579 -19.31527 -14.72554 -14.68590 -10.50236
 Alpha  occ. eigenvalues --  -10.47872 -10.42251 -10.41848 -10.39802 -10.39445
 Alpha  occ. eigenvalues --  -10.39431  -1.37013  -1.27944  -1.19298  -1.10702
 Alpha  occ. eigenvalues --   -1.02312  -0.97205  -0.90324  -0.84323  -0.81373
 Alpha  occ. eigenvalues --   -0.76055  -0.72285  -0.71297  -0.71112  -0.68523
 Alpha  occ. eigenvalues --   -0.66132  -0.65208  -0.63561  -0.63154  -0.62484
 Alpha  occ. eigenvalues --   -0.57548  -0.56839  -0.55629  -0.55422  -0.48939
 Alpha  occ. eigenvalues --   -0.46817  -0.45853  -0.45498
 Alpha virt. eigenvalues --   -0.29406  -0.26887  -0.22393  -0.17647  -0.12474
 Alpha virt. eigenvalues --   -0.09431  -0.06065  -0.02707  -0.02066  -0.01827
 Alpha virt. eigenvalues --    0.01800   0.02462   0.05138   0.08107   0.10158

 Mulliken atomic charges:
              1
     1  C   -0.010532
     2  C    0.222736
     3  C    0.094195
     4  C   -0.109208
     5  C   -0.040184
     6  C   -0.081977
     7  H    0.184063
     8  H    0.187399
     9  H    0.177674
    10  H    0.177989
    11  N    0.125324
    12  N   -0.000823
    13  C    0.622829
    14  O   -0.455046
    15  O   -0.463693
    16  H    0.369254
 Sum of Mulliken atomic charges =   1.00000

 Dipole moment (field-independent basis, Debye):
    X=             -3.2153    Y=              0.3397    Z=             -0.0001  Tot=              3.2331
 Quadrupole moment (field-independent basis, Debye-Ang):
   XX=            -35.4732   YY=            -38.3939   ZZ=            -59.4516
   XY=             -4.7967   XZ=             -0.0005   YZ=             -0.0002

  Exact polarizability: 116.078  12.489 117.533   0.000   0.000  31.898
 Approx polarizability: 198.671  45.188 232.237   0.000   0.000  49.696

                     1                      2                      3
                     A                      A                      A
 Frequencies --    70.2032               118.0001               179.9641
 Red. masses --    13.3080                 4.6360                 5.6570
 Frc consts  --     0.0386                 0.0380                 0.1079
 IR Inten    --     2.3965                 0.0201                 0.9509

                     4                      5                      6
                     A                      A                      A
 Frequencies --   193.1068               202.9536               344.9674
 Red. masses --    11.1507                 6.8265                 9.1258
 Frc consts  --     0.2450                 0.1657                 0.6399
 IR Inten    --     0.3726                10.6412                16.4691

                     7                      8                      9
                     A                      A                      A
 Frequencies --   392.7531               422.5349               426.0688
 Red. masses --     3.9885                11.0097                 3.6057
 Frc consts  --     0.3625                 1.1581                 0.3857
 IR Inten    --     0.0689                10.3320                 8.7479

                    10                     11                     12
                     A                      A                      A
 Frequencies --   522.7848               562.5002               571.3261
 Red. masses --     9.1903                 6.2232                 6.2668
 Frc consts  --     1.4799                 1.1601                 1.2052
 IR Inten    --     1.2922                 6.8078                 2.7739

                    13                     14                     15
                     A                      A                      A
 Frequencies --   607.4302               642.5857               681.9634
 Red. masses --     1.4458                 5.6242                 2.4309
 Frc consts  --     0.3143                 1.3683                 0.6661
 IR Inten    --    47.8358                42.0414                90.9486

                    16                     17                     18
                     A                      A                      A
 Frequencies --   731.4322               762.0684               796.0701
 Red. masses --     4.7100                 3.2522                 1.5410
 Frc consts  --     1.4846                 1.1128                 0.5754
 IR Inten    --    35.1244                50.6510                17.3877

                    19                     20                     21
                     A                      A                      A
 Frequencies --   815.1453               915.8487               997.4152
 Red. masses --     5.7313                 1.3546                 1.3543
 Frc consts  --     2.2437                 0.6694                 0.7938
 IR Inten    --     8.8271                 0.2132                 0.9754

                    22                     23                     24
                     A                      A                      A
 Frequencies --  1039.7681              1056.7791              1087.3332
 Red. masses --     1.3738                 2.5412                 4.9104
 Frc consts  --     0.8751                 1.6721                 3.4205
 IR Inten    --     0.3453                 4.9467                 9.5896

                    25                     26                     27
                     A                      A                      A
 Frequencies --  1155.0471              1177.4652              1205.2683
 Red. masses --     3.7986                 1.7429                 1.1733
 Frc consts  --     2.9859                 1.4237                 1.0042
 IR Inten    --   136.8974                19.3035                43.3251

                    28                     29                     30
                     A                      A                      A
 Frequencies --  1210.3193              1306.4729              1381.7454
 Red. masses --     1.5640                 1.5380                 7.9335
 Frc consts  --     1.3499                 1.5467                 8.9242
 IR Inten    --   163.0016                 2.7347                50.1265

                    31                     32                     33
                     A                      A                      A
 Frequencies --  1422.7080              1470.8714              1520.7203
 Red. masses --     2.9727                 2.0809                 2.6971
 Frc consts  --     3.5451                 2.6525                 3.6750
 IR Inten    --   149.1309                18.4489                 3.1193

                    34                     35                     36
                     A                      A                      A
 Frequencies --  1613.4537              1622.8987              1817.9948
 Red. masses --     5.3510                 6.0495                11.4855
 Frc consts  --     8.2073                 9.3875                22.3658
 IR Inten    --    72.5251                19.3362               200.2894

                    37                     38                     39
                     A                      A                      A
 Frequencies --  2362.0185              3219.6469              3227.3633
 Red. masses --    13.9633                 1.0900                 1.0925
 Frc consts  --    45.8993                 6.6571                 6.7046
 IR Inten    --   162.4465                 0.2034                 2.7530

                    40                     41                     42
                     A                      A                      A
 Frequencies --  3236.0528              3241.0174              3739.2047
 Red. masses --     1.0969                 1.0958                 1.0650
 Frc consts  --     6.7681                 6.7818                 8.7730
 IR Inten    --    10.0092                 5.8104               201.2437

 - Thermochemistry -
 -------------------
 Temperature   298.150 Kelvin.  Pressure   1.00000 Atm.
 Atom     1 has atomic number  6 and mass  12.00000

 Molecular mass:   149.03510 amu.
 Principal axes and moments of inertia in atomic units:
                           1         2         3
     Eigenvalues --  1177.360901508.080232685.44113
           X            0.99941  -0.03448   0.00000
           Y            0.03448   0.99941   0.00000
           Z            0.00000   0.00000   1.00000
 This molecule is an asymmetric top.
 Rotational symmetry number  1.
 Warning -- assumption of classical behavior for rotation
           may cause significant error
 Rotational temperatures (Kelvin)      0.07357     0.05743     0.03225
 Rotational constants (GHZ):           1.53287     1.19671     0.67205
 Zero-point vibrational energy     299492.7 (Joules/Mol)
                                   71.58047 (Kcal/Mol)
 Warning -- explicit consideration of  13 degrees of freedom as
           vibrations may cause significant error
 Vibrational temperatures:    101.01   169.78   258.93   277.84   292.00
          (Kelvin)            496.33   565.08   607.93   613.02   752.17
                              809.31   822.01   873.96   924.54   981.19
                             1052.37  1096.45  1145.37  1172.81  1317.70
                             1435.06  1495.99  1520.47  1564.43  1661.85
                             1694.11  1734.11  1741.38  1879.72  1988.02
                             2046.96  2116.25  2187.97  2321.40  2334.99
                             2615.69  3398.41  4632.35  4643.45  4655.95
                             4663.10  5379.87

 Zero-point correction=                           0.114071 (Hartree/Particle)
 Thermal correction to Energy=                    0.122988
 Thermal correction to Enthalpy=                  0.123932
 Thermal correction to Gibbs Free Energy=         0.079691
 Sum of electronic and zero-point Energies=           -529.314053
 Sum of electronic and thermal Energies=              -529.305135
 Sum of electronic and thermal Enthalpies=            -529.304191
 Sum of electronic and thermal Free Energies=         -529.348432

                     E (Thermal)             CV                S
                      KCal/Mol        Cal/Mol-Kelvin    Cal/Mol-Kelvin
 Total                   77.176             33.613             93.113
 Electronic               0.000              0.000              0.000
 Translational            0.889              2.981             40.907
 Rotational               0.889              2.981             29.946
 Vibrational             75.399             27.652             22.260
 Vibration     1          0.598              1.968              4.148
 Vibration     2          0.608              1.934              3.133
 Vibration     3          0.629              1.867              2.329
 Vibration     4          0.635              1.849              2.198
 Vibration     5          0.639              1.836              2.106
 Vibration     6          0.723              1.586              1.189
 Vibration     7          0.760              1.486              0.990
 Vibration     8          0.785              1.421              0.883
 Vibration     9          0.788              1.414              0.872
 Vibration    10          0.878              1.200              0.604
 Vibration    11          0.918              1.112              0.519
 Vibration    12          0.927              1.093              0.502
 Vibration    13          0.966              1.016              0.437

 Optimization completed.
    -- Stationary point found.
 Normal termination of Gaussian 09 at Thu Apr  7 02:14:16 2005.
