 Gaussian 09, Revision B.01,
 Gaussian 09:  EM64L-G09RevB.01 12-Aug-2010

 ----------------------------------------------------------------------
 #p Temperature=298.15 opt=(maxcycles=1024) SCF=(maxcycles=1024) freq R
 B3LYP/aug-cc-pVDZ
 ----------------------------------------------------------------------

 ---------------------------------------------
 2-HOOC-4-Br-Ph-N2+-RB3LYP-aug-cc-pVDZ-Singlet
 ---------------------------------------------
 Symbolic Z-matrix:
 Charge =  1 Multiplicity = 1

 SCF Done:  E(RB3LYP) =  -3103.02724023     A.U. after   18 cycles
 SCF Done:  E(RB3LYP) =  -3103.03574188     A.U. after   14 cycles
 SCF Done:  E(RB3LYP) =  -3103.03651309     A.U. after   14 cycles
 SCF Done:  E(RB3LYP) =  -3103.03666915     A.U. after   18 cycles
 SCF Done:  E(RB3LYP) =  -3103.03668426     A.U. after   18 cycles
 SCF Done:  E(RB3LYP) =  -3103.03669430     A.U. after   18 cycles
 SCF Done:  E(RB3LYP) =  -3103.03672637     A.U. after   12 cycles
 SCF Done:  E(RB3LYP) =  -3103.03672668     A.U. after   10 cycles
 SCF Done:  E(RB3LYP) =  -3103.03672669     A.U. after   24 cycles
 SCF Done:  E(RB3LYP) =  -3103.03672674     A.U. after    9 cycles
 Optimization completed.
    -- Stationary point found.
 Normal termination of Gaussian 09 at Fri May 25 22:13:29 2018.

 ----------------------------------------------------------------------
 #P Geom=AllCheck Guess=TCheck SCRF=Check GenChk RB3LYP/Aug-CC-pVDZ Fre
 q
 ----------------------------------------------------------------------

 2-HOOC-4-Br-Ph-N2+-RB3LYP-aug-cc-pVDZ-Singlet
 ---------------------------------------------
 Redundant internal coordinates taken from checkpoint file:
 /home/ubuntu/g09/Gau-2024.chk
 Charge =  1 Multiplicity = 1

                         Standard orientation:
 ---------------------------------------------------------------------
 Center     Atomic      Atomic             Coordinates (Angstroms)
 Number     Number       Type             X           Y           Z
 ---------------------------------------------------------------------
      1          6           0        0.506680   -1.995415    0.000015
      2          6           0        1.462812   -0.961760    0.000001
      3          6           0        1.113139    0.411102   -0.000007
      4          6           0       -0.238541    0.727837   -0.000006
      5          6           0       -1.208711   -0.294219    0.000006
      6          6           0       -0.838132   -1.649745    0.000021
      7          1           0        0.817565   -3.039006    0.000012
      8          1           0       -0.541723    1.772311   -0.000013
      9          1           0       -1.597537   -2.429412    0.000044
     10          7           0        2.791463   -1.356452   -0.000002
     11          7           0        3.800903   -1.826328   -0.000006
     12         35           0       -3.029174    0.169550   -0.000006
     13          6           0        2.198538    1.446049   -0.000007
     14          8           0        3.370533    1.136011   -0.000027
     15          8           0        1.723446    2.691607    0.000033
     16          1           0        2.469688    3.317290    0.000043
 ---------------------------------------------------------------------

 SCF Done:  E(RB3LYP) =  -3103.03672674     A.U. after    2 cycles

 The electronic state is 1-A.
 Alpha  occ. eigenvalues -- -483.04890 -62.69967 -56.51694 -56.51342 -56.51288
 Alpha  occ. eigenvalues --  -19.36704 -19.31738 -14.71683 -14.67757 -10.50511
 Alpha  occ. eigenvalues --  -10.47771 -10.44553 -10.42671 -10.42013 -10.40031
 Alpha  occ. eigenvalues --  -10.39918  -8.88029  -6.71082  -6.69807  -6.69629
 Alpha  occ. eigenvalues --   -2.82117  -2.81779  -2.81643  -2.80625  -2.80621
 Alpha  occ. eigenvalues --   -1.36945  -1.28858  -1.20323  -1.11231  -1.04435
 Alpha  occ. eigenvalues --   -0.98285  -0.96749  -0.88229  -0.85089  -0.82097
 Alpha  occ. eigenvalues --   -0.76215  -0.72211  -0.71792  -0.70663  -0.68619
 Alpha  occ. eigenvalues --   -0.67131  -0.65118  -0.64345  -0.63984  -0.63343
 Alpha  occ. eigenvalues --   -0.58201  -0.57980  -0.56768  -0.55691  -0.50958
 Alpha  occ. eigenvalues --   -0.49732  -0.46883  -0.46506  -0.44990  -0.43200
 Alpha virt. eigenvalues --   -0.29765  -0.26965  -0.23716  -0.18830  -0.16615
 Alpha virt. eigenvalues --   -0.14334  -0.13891  -0.12193  -0.11052  -0.10584
 Alpha virt. eigenvalues --   -0.08987  -0.08808  -0.07212  -0.06207  -0.06127

 Mulliken atomic charges:
              1
     1  C    1.270719
     2  C   -0.286227
     3  C    2.034924
     4  C    0.593288
     5  C    0.004678
     6  C    0.293880
     7  H   -0.892755
     8  H   -0.825131
     9  H   -0.725992
    10  N    0.501164
    11  N   -0.768466
    12  Br   0.263746
    13  C    0.271584
    14  O   -0.505023
    15  O   -0.541415
    16  H    0.311026
 Sum of Mulliken atomic charges =   1.00000

 Dipole moment (field-independent basis, Debye):
    X=              3.4768    Y=             -2.5740    Z=              0.0001  Tot=              4.3259
 Quadrupole moment (field-independent basis, Debye-Ang):
   XX=            -54.8088   YY=            -50.3200   ZZ=            -77.6995
   XY=             -1.3914   XZ=              0.0002   YZ=              0.0000

  Exact polarizability: 210.625 -16.315 127.951  -0.003   0.000  63.651
 Approx polarizability: 396.563 -56.877 216.870  -0.001   0.000 103.472

                     1                      2                      3
                     A                      A                      A
 Frequencies --    64.2624                77.3841               134.7603
 Red. masses --    12.7473                 9.6483                10.7831
 Frc consts  --     0.0310                 0.0340                 0.1154
 IR Inten    --     3.6598                 0.0005                 5.5344

                     4                      5                      6
                     A                      A                      A
 Frequencies --   147.1653               180.6021               238.6140
 Red. masses --     4.8146                12.3766                 7.2998
 Frc consts  --     0.0614                 0.2378                 0.2449
 IR Inten    --     0.3092                 0.7471                 0.0064

                     7                      8                      9
                     A                      A                      A
 Frequencies --   262.8503               284.6134               354.7700
 Red. masses --    11.4945                11.1539                 8.0078
 Frc consts  --     0.4679                 0.5323                 0.5938
 IR Inten    --     7.2628                12.7350                10.7150

                    10                     11                     12
                     A                      A                      A
 Frequencies --   419.9563               429.6937               480.4023
 Red. masses --     3.0738                11.2109                 6.4234
 Frc consts  --     0.3194                 1.2196                 0.8734
 IR Inten    --     5.8244                 4.3280                 1.3666

                    13                     14                     15
                     A                      A                      A
 Frequencies --   555.5838               571.4204               612.8287
 Red. masses --     4.6572                 6.3461                 7.7304
 Frc consts  --     0.8470                 1.2209                 1.7105
 IR Inten    --     5.6890                 7.6995                 5.2407

                    16                     17                     18
                     A                      A                      A
 Frequencies --   635.4918               660.5497               705.3736
 Red. masses --     1.3156                 5.9877                 3.3696
 Frc consts  --     0.3130                 1.5393                 0.9878
 IR Inten    --    99.4685                39.4035                20.5287

                    19                     20                     21
                     A                      A                      A
 Frequencies --   733.3258               797.8564               843.3754
 Red. masses --     5.1891                 4.5557                 1.4262
 Frc consts  --     1.6441                 1.7087                 0.5977
 IR Inten    --    27.7160                12.3967                32.6907

                    22                     23                     24
                     A                      A                      A
 Frequencies --   854.9642               953.7265               995.5086
 Red. masses --     6.6641                 1.5717                 1.3701
 Frc consts  --     2.8700                 0.8423                 0.8000
 IR Inten    --    31.8051                 5.1258                 0.3099

                    25                     26                     27
                     A                      A                      A
 Frequencies --  1069.8359              1114.5724              1153.0586
 Red. masses --     3.4211                 3.5403                 3.5677
 Frc consts  --     2.3070                 2.5912                 2.7947
 IR Inten    --    66.1092                45.5320               237.8337

                    28                     29                     30
                     A                      A                      A
 Frequencies --  1183.1356              1206.9675              1288.6860
 Red. masses --     1.5223                 1.7508                 1.3359
 Frc consts  --     1.2555                 1.5028                 1.3071
 IR Inten    --     4.4208               212.8687                 1.0496

                    31                     32                     33
                     A                      A                      A
 Frequencies --  1351.8409              1393.8092              1431.7682
 Red. masses --     7.6020                 2.7897                 3.5281
 Frc consts  --     8.1852                 3.1932                 4.2613
 IR Inten    --     7.6933               190.2684                 7.1917

                    34                     35                     36
                     A                      A                      A
 Frequencies --  1487.0733              1584.0241              1597.2283
 Red. masses --     2.8490                 7.8104                 6.0109
 Frc consts  --     3.7120                11.5464                 9.0349
 IR Inten    --     6.5218               102.8491               263.1746

                    37                     38                     39
                     A                      A                      A
 Frequencies --  1784.3498              2336.0799              3211.3244
 Red. masses --    10.9829                13.9648                 1.0917
 Frc consts  --    20.6029                44.9014                 6.6333
 IR Inten    --   207.1053               328.0499                 4.2176

                    40                     41                     42
                     A                      A                      A
 Frequencies --  3224.5412              3232.8669              3717.3706
 Red. masses --     1.0973                 1.0933                 1.0651
 Frc consts  --     6.7225                 6.7320                 8.6722
 IR Inten    --    14.1374                13.6912               214.8979

 - Thermochemistry -
 -------------------
 Temperature   298.150 Kelvin.  Pressure   1.00000 Atm.
 Atom     1 has atomic number  6 and mass  12.00000

 Molecular mass:   226.94561 amu.
 Principal axes and moments of inertia in atomic units:
                           1         2         3
     Eigenvalues --  1309.336934997.398446306.73537
           X            0.99992   0.01258   0.00000
           Y           -0.01258   0.99992   0.00000
           Z            0.00000   0.00000   1.00000
 This molecule is an asymmetric top.
 Rotational symmetry number  1.
 Warning -- assumption of classical behavior for rotation
           may cause significant error
 Rotational temperatures (Kelvin)      0.06615     0.01733     0.01373
 Rotational constants (GHZ):           1.37836     0.36114     0.28616
 Zero-point vibrational energy     271334.7 (Joules/Mol)
                                   64.85054 (Kcal/Mol)
 Warning -- explicit consideration of  15 degrees of freedom as
           vibrations may cause significant error
 Vibrational temperatures:     92.46   111.34   193.89   211.74   259.85
          (Kelvin)            343.31   378.18   409.49   510.43   604.22
                              618.23   691.19   799.36   822.15   881.72
                              914.33   950.38  1014.87  1055.09  1147.94
                             1213.43  1230.10  1372.20  1432.31  1539.25
                             1603.62  1658.99  1702.27  1736.55  1854.13
                             1945.00  2005.38  2059.99  2139.56  2279.05
                             2298.05  2567.28  3361.09  4620.37  4639.39
                             4651.37  5348.46

 Zero-point correction=                           0.103346 (Hartree/Particle)
 Thermal correction to Energy=                    0.113694
 Thermal correction to Enthalpy=                  0.114638
 Thermal correction to Gibbs Free Energy=         0.065736
 Sum of electronic and zero-point Energies=          -3102.933381
 Sum of electronic and thermal Energies=             -3102.923033
 Sum of electronic and thermal Enthalpies=           -3102.922089
 Sum of electronic and thermal Free Energies=        -3102.970991

                     E (Thermal)             CV                S
                      KCal/Mol        Cal/Mol-Kelvin    Cal/Mol-Kelvin
 Total                   71.344             37.720            102.924
 Electronic               0.000              0.000              0.000
 Translational            0.889              2.981             42.161
 Rotational               0.889              2.981             32.090
 Vibrational             69.567             31.758             28.673
 Vibration     1          0.597              1.971              4.322
 Vibration     2          0.599              1.964              3.956
 Vibration     3          0.613              1.919              2.877
 Vibration     4          0.617              1.906              2.709
 Vibration     5          0.630              1.866              2.322
 Vibration     6          0.657              1.781              1.813
 Vibration     7          0.670              1.741              1.643
 Vibration     8          0.683              1.702              1.506
 Vibration     9          0.731              1.565              1.145
 Vibration    10          0.783              1.427              0.892
 Vibration    11          0.791              1.406              0.860
 Vibration    12          0.837              1.294              0.709
 Vibration    13          0.911              1.127              0.533
 Vibration    14          0.928              1.093              0.502
 Vibration    15          0.972              1.005              0.428

 Optimization completed.
    -- Stationary point found.
 Normal termination of Gaussian 09 at Fri May 25 22:32:35 2018.
