 Gaussian 09, Revision B.01,
 Gaussian 09:  EM64L-G09RevB.01 12-Aug-2010

 ----------------------------------------------------------------------
 #p Temperature=298.15 opt=(maxcycles=1024) SCF=(maxcycles=1024) freq R
 B3LYP/aug-cc-pVDZ
 ----------------------------------------------------------------------

 ---------------------------------------
 2-NO2-Ph-N2+-RB3LYP-aug-cc-pVDZ-Singlet
 ---------------------------------------
 Symbolic Z-matrix:
 Charge =  1 Multiplicity = 1

 SCF Done:  E(RB3LYP) =  -545.393652410     A.U. after   16 cycles
 SCF Done:  E(RB3LYP) =  -545.393302310     A.U. after   17 cycles
 SCF Done:  E(RB3LYP) =  -545.394098243     A.U. after   16 cycles
 SCF Done:  E(RB3LYP) =  -545.386430501     A.U. after   17 cycles
 SCF Done:  E(RB3LYP) =  -545.394321618     A.U. after   17 cycles
 SCF Done:  E(RB3LYP) =  -545.394438487     A.U. after   14 cycles
 SCF Done:  E(RB3LYP) =  -545.394455112     A.U. after   13 cycles
 SCF Done:  E(RB3LYP) =  -545.394457128     A.U. after   25 cycles
 SCF Done:  E(RB3LYP) =  -545.394457775     A.U. after   11 cycles
 Optimization completed.
    -- Stationary point found.
 Normal termination of Gaussian 09 at Sat May 26 11:38:17 2018.

 ----------------------------------------------------------------------
 #P Geom=AllCheck Guess=TCheck SCRF=Check GenChk RB3LYP/Aug-CC-pVDZ Fre
 q
 ----------------------------------------------------------------------

 2-NO2-Ph-N2+-RB3LYP-aug-cc-pVDZ-Singlet
 ---------------------------------------
 Redundant internal coordinates taken from checkpoint file:
 /home/ubuntu/g09/Gau-807.chk
 Charge =  1 Multiplicity = 1

                         Standard orientation:
 ---------------------------------------------------------------------
 Center     Atomic      Atomic             Coordinates (Angstroms)
 Number     Number       Type             X           Y           Z
 ---------------------------------------------------------------------
      1          6           0        2.637986    0.225039   -0.000169
      2          6           0        1.650774    1.210841   -0.001067
      3          6           0        0.307112    0.798103   -0.000591
      4          6           0       -0.054343   -0.566326    0.000027
      5          6           0        0.938945   -1.528434    0.000792
      6          6           0        2.286379   -1.129034    0.000830
      7          1           0        3.685831    0.522632   -0.000084
      8          1           0        1.902538    2.270378   -0.001838
      9          7           0       -0.649999    1.809155   -0.000618
     10          7           0       -1.257343    2.740426    0.001297
     11          1           0        3.065745   -1.890760    0.001564
     12          1           0        0.652510   -2.578918    0.001174
     13          7           0       -1.480156   -0.963597   -0.000145
     14          8           0       -2.290006   -0.036323    0.000500
     15          8           0       -1.734401   -2.149471   -0.000936
 ---------------------------------------------------------------------

 SCF Done:  E(RB3LYP) =  -545.394457775     A.U. after    2 cycles

 The electronic state is 1-A.
 Alpha  occ. eigenvalues --  -19.36848 -19.36712 -14.75806 -14.73902 -14.70028
 Alpha  occ. eigenvalues --  -10.50242 -10.47051 -10.43673 -10.41704 -10.41550
 Alpha  occ. eigenvalues --  -10.41241  -1.42130  -1.39127  -1.25116  -1.13338
 Alpha  occ. eigenvalues --   -1.04865  -1.01210  -0.93627  -0.88818  -0.83415
 Alpha  occ. eigenvalues --   -0.79195  -0.74504  -0.74371  -0.73096  -0.71961
 Alpha  occ. eigenvalues --   -0.70836  -0.70180  -0.68329  -0.66418  -0.65602
 Alpha  occ. eigenvalues --   -0.59713  -0.59032  -0.57991  -0.50009  -0.49612
 Alpha  occ. eigenvalues --   -0.49071  -0.48545  -0.48393
 Alpha virt. eigenvalues --   -0.31957  -0.28916  -0.26798  -0.21202  -0.19380
 Alpha virt. eigenvalues --   -0.15584  -0.13358  -0.12045  -0.11266  -0.09816
 Alpha virt. eigenvalues --   -0.08705  -0.08395  -0.06854  -0.06632  -0.06005

 Mulliken atomic charges:
              1
     1  C    0.575364
     2  C    1.096935
     3  C    0.820366
     4  C    0.871396
     5  C    0.935125
     6  C    0.362247
     7  H   -0.679809
     8  H   -0.809220
     9  N    0.491526
    10  N   -0.670200
    11  H   -0.660644
    12  H   -0.776358
    13  N    0.663189
    14  O   -0.638535
    15  O   -0.581381
 Sum of Mulliken atomic charges =   1.00000

 Dipole moment (field-independent basis, Debye):
    X=              6.0004    Y=              3.0789    Z=              0.0001  Tot=              6.7442
 Quadrupole moment (field-independent basis, Debye-Ang):
   XX=            -44.1809   YY=            -41.4310   ZZ=            -59.0306
   XY=             -5.0882   XZ=              0.0016   YZ=             -0.0113

  Exact polarizability: 126.326 -11.598 124.562  -0.004  -0.002  48.649
 Approx polarizability: 219.890 -43.411 253.610  -0.024   0.020  77.198

                     1                      2                      3
                     A                      A                      A
 Frequencies --    62.8022               117.8561               190.1517
 Red. masses --    15.0825                 5.0357                 6.2910
 Frc consts  --     0.0350                 0.0412                 0.1340
 IR Inten    --     0.3095                 0.9425                 0.3641

                     4                      5                      6
                     A                      A                      A
 Frequencies --   198.8818               235.8396               356.5392
 Red. masses --    13.3302                 7.8059                10.6311
 Frc consts  --     0.3107                 0.2558                 0.7962
 IR Inten    --     1.7595                11.4723                 8.8809

                     7                      8                      9
                     A                      A                      A
 Frequencies --   394.9976               432.8129               438.4252
 Red. masses --     4.0133                13.7846                 4.1155
 Frc consts  --     0.3689                 1.5214                 0.4661
 IR Inten    --     0.0088                 4.2148                 0.6036

                    10                     11                     12
                     A                      A                      A
 Frequencies --   522.9473               555.9865               584.7753
 Red. masses --     9.2531                 5.8569                 7.0358
 Frc consts  --     1.4909                 1.0667                 1.4176
 IR Inten    --     0.7661                 6.2207                 1.1711

                    13                     14                     15
                     A                      A                      A
 Frequencies --   664.4643               667.6499               757.1509
 Red. masses --     6.9253                 3.6807                 2.8709
 Frc consts  --     1.8015                 0.9667                 0.9697
 IR Inten    --     3.3304                12.4279                29.5502

                    16                     17                     18
                     A                      A                      A
 Frequencies --   775.7886               794.7220               859.4320
 Red. masses --     6.7897                 1.5975                10.3830
 Frc consts  --     2.4076                 0.5944                 4.5185
 IR Inten    --     8.8464                30.1532                39.2707

                    19                     20                     21
                     A                      A                      A
 Frequencies --   914.6777               999.4143              1041.5086
 Red. masses --     1.4508                 1.3751                 1.4213
 Frc consts  --     0.7151                 0.8093                 0.9084
 IR Inten    --     0.3355                 1.5410                 0.3433

                    22                     23                     24
                     A                      A                      A
 Frequencies --  1047.6769              1074.8887              1157.0514
 Red. masses --     2.2850                 5.2315                 2.4083
 Frc consts  --     1.4777                 3.5613                 1.8996
 IR Inten    --     1.8339                 8.1156                79.5385

                    25                     26                     27
                     A                      A                      A
 Frequencies --  1166.8253              1193.6092              1281.5434
 Red. masses --     1.8086                 1.1592                 1.5619
 Frc consts  --     1.4508                 0.9730                 1.5114
 IR Inten    --    24.3299                 6.2447                 4.5225

                    28                     29                     30
                     A                      A                      A
 Frequencies --  1367.8465              1388.6238              1459.4472
 Red. masses --    11.1610                 7.1804                 2.2904
 Frc consts  --    12.3034                 8.1577                 2.8744
 IR Inten    --   166.7870                 5.0702                 4.2420

                    31                     32                     33
                     A                      A                      A
 Frequencies --  1490.2997              1594.1975              1615.0068
 Red. masses --     2.5032                 5.8748                 7.4657
 Frc consts  --     3.2757                 8.7969                11.4728
 IR Inten    --     6.7936                81.4160               107.7389

                    34                     35                     36
                     A                      A                      A
 Frequencies --  1651.9967              2355.1899              3208.0415
 Red. masses --    11.9792                13.9694                 1.0899
 Frc consts  --    19.2618                45.6540                 6.6088
 IR Inten    --   135.2702               121.5158                 1.0138

                    37                     38                     39
                     A                      A                      A
 Frequencies --  3214.0352              3221.6083              3225.8430
 Red. masses --     1.0928                 1.0960                 1.0981
 Frc consts  --     6.6514                 6.7018                 6.7325
 IR Inten    --     2.9597                27.8901                13.1528

 - Thermochemistry -
 -------------------
 Temperature   298.150 Kelvin.  Pressure   1.00000 Atm.
 Atom     1 has atomic number  6 and mass  12.00000

 Molecular mass:   150.03035 amu.
 Principal axes and moments of inertia in atomic units:
                           1         2         3
     Eigenvalues --  1166.589091457.377362623.96582
           X            0.99987  -0.01595   0.00000
           Y            0.01595   0.99987  -0.00003
           Z            0.00000   0.00003   1.00000
 This molecule is an asymmetric top.
 Rotational symmetry number  1.
 Warning -- assumption of classical behavior for rotation
           may cause significant error
 Rotational temperatures (Kelvin)      0.07425     0.05943     0.03301
 Rotational constants (GHZ):           1.54702     1.23835     0.68779
 Zero-point vibrational energy     264856.5 (Joules/Mol)
                                   63.30223 (Kcal/Mol)
 Warning -- explicit consideration of  12 degrees of freedom as
           vibrations may cause significant error
 Vibrational temperatures:     90.36   169.57   273.59   286.15   339.32
          (Kelvin)            512.98   568.31   622.72   630.80   752.40
                              799.94   841.36   956.01   960.60  1089.37
                             1116.19  1143.43  1236.53  1316.02  1437.93
                             1498.50  1507.37  1546.52  1664.74  1678.80
                             1717.34  1843.85  1968.02  1997.92  2099.82
                             2144.21  2293.69  2323.63  2376.85  3388.59
                             4615.65  4624.27  4635.17  4641.26

 Zero-point correction=                           0.100879 (Hartree/Particle)
 Thermal correction to Energy=                    0.109505
 Thermal correction to Enthalpy=                  0.110450
 Thermal correction to Gibbs Free Energy=         0.066653
 Sum of electronic and zero-point Energies=           -545.293579
 Sum of electronic and thermal Energies=              -545.284952
 Sum of electronic and thermal Enthalpies=            -545.284008
 Sum of electronic and thermal Free Energies=         -545.327805

                     E (Thermal)             CV                S
                      KCal/Mol        Cal/Mol-Kelvin    Cal/Mol-Kelvin
 Total                   68.716             32.184             92.177
 Electronic               0.000              0.000              0.000
 Translational            0.889              2.981             40.927
 Rotational               0.889              2.981             29.879
 Vibrational             66.938             26.222             21.371
 Vibration     1          0.597              1.972              4.367
 Vibration     2          0.608              1.934              3.135
 Vibration     3          0.633              1.853              2.226
 Vibration     4          0.637              1.841              2.143
 Vibration     5          0.655              1.786              1.834
 Vibration     6          0.732              1.562              1.137
 Vibration     7          0.762              1.481              0.981
 Vibration     8          0.794              1.399              0.850
 Vibration     9          0.799              1.386              0.832
 Vibration    10          0.878              1.199              0.603
 Vibration    11          0.911              1.127              0.532
 Vibration    12          0.942              1.064              0.477

 Normal termination of Gaussian 09 at Sat May 26 11:50:54 2018.
