 Gaussian 09, Revision B.01,
 Gaussian 09:  EM64L-G09RevB.01 12-Aug-2010

 ----------------------------
 # opt freq rb3lyp/6-31G(d,p)
 ----------------------------

 -------------------------------
 2-NO2-Ph-N2-OTf-RB3LYP-6-31G_dp
 -------------------------------
 Symbolic Z-matrix:
 Charge =  0 Multiplicity = 1

 SCF Done:  E(RB3LYP) =  -1506.97381331     A.U. after   26 cycles
 SCF Done:  E(RB3LYP) =  -1506.94847956     A.U. after   17 cycles
 SCF Done:  E(RB3LYP) =  -1506.97431991     A.U. after   17 cycles
 SCF Done:  E(RB3LYP) =  -1506.97540859     A.U. after   16 cycles
 SCF Done:  E(RB3LYP) =  -1506.97576911     A.U. after   15 cycles
 SCF Done:  E(RB3LYP) =  -1506.97195671     A.U. after   15 cycles
 SCF Done:  E(RB3LYP) =  -1506.97583746     A.U. after   15 cycles
 SCF Done:  E(RB3LYP) =  -1506.97600171     A.U. after   13 cycles
 SCF Done:  E(RB3LYP) =  -1506.97628835     A.U. after   16 cycles
 SCF Done:  E(RB3LYP) =  -1506.97645701     A.U. after   15 cycles
 SCF Done:  E(RB3LYP) =  -1506.97681531     A.U. after   12 cycles
 SCF Done:  E(RB3LYP) =  -1506.97682129     A.U. after   11 cycles
 SCF Done:  E(RB3LYP) =  -1506.97682324     A.U. after   10 cycles
 SCF Done:  E(RB3LYP) =  -1506.97682574     A.U. after   11 cycles
 SCF Done:  E(RB3LYP) =  -1506.97682675     A.U. after   11 cycles
 SCF Done:  E(RB3LYP) =  -1506.97682746     A.U. after   11 cycles
 SCF Done:  E(RB3LYP) =  -1506.97682816     A.U. after   10 cycles
 SCF Done:  E(RB3LYP) =  -1506.97682850     A.U. after   10 cycles
 SCF Done:  E(RB3LYP) =  -1506.97682859     A.U. after    8 cycles
 Optimization completed.
    -- Stationary point found.
 Normal termination of Gaussian 09 at Thu Mar  3 18:09:46 2005.

 ----------------------------------------------------------------------
 #N Geom=AllCheck Guess=TCheck SCRF=Check GenChk RB3LYP/6-31G(d,p) Freq
 ----------------------------------------------------------------------

 2-NO2-Ph-N2-OTf-RB3LYP-6-31G_dp
 -------------------------------
 Redundant internal coordinates taken from checkpoint file:
 Ph-N2-OTf-N2-Ph.chk
 Charge =  0 Multiplicity = 1

                         Standard orientation:
 ---------------------------------------------------------------------
 Center     Atomic      Atomic             Coordinates (Angstroms)
 Number     Number       Type             X           Y           Z
 ---------------------------------------------------------------------
      1          6           0        1.107624    2.372775   -0.470740
      2          6           0        0.715590    1.056341   -0.710914
      3          6           0        1.638157    0.038316   -0.451116
      4          6           0        2.929794    0.312581    0.032785
      5          6           0        3.299997    1.625215    0.268121
      6          6           0        2.383468    2.653640    0.016292
      7          1           0        0.396550    3.170635   -0.652987
      8          1           0       -0.268272    0.789200   -1.079485
      9          7           0        1.200458   -1.259190   -0.679318
     10          7           0        0.513030   -2.109527   -0.918575
     11         16           0       -2.093869   -0.910443    0.240579
     12          6           0       -3.091407    0.661415    0.108080
     13          8           0       -1.575011   -1.049726   -1.174618
     14          8           0       -3.053379   -1.929453    0.666640
     15          8           0       -0.996708   -0.558673    1.176227
     16          9           0       -2.301671    1.685068   -0.313914
     17          9           0       -4.090038    0.530209   -0.767984
     18          9           0       -3.598406    1.003353    1.295736
     19          1           0        2.677304    3.680166    0.208085
     20          1           0        4.295254    1.823465    0.645396
     21          7           0        3.895564   -0.768415    0.291766
     22          8           0        3.528691   -1.913891    0.031514
     23          8           0        4.990081   -0.451486    0.736865
 ---------------------------------------------------------------------

 SCF Done:  E(RB3LYP) =  -1506.97682859     A.U. after    1 cycles

 The electronic state is 1-A.
 Alpha  occ. eigenvalues --  -89.08942 -24.72958 -24.72340 -24.72310 -19.24458
 Alpha  occ. eigenvalues --  -19.24428 -19.12618 -19.11365 -19.11159 -14.63722
 Alpha  occ. eigenvalues --  -14.56858 -14.55039 -10.42656 -10.35621 -10.33633
 Alpha  occ. eigenvalues --  -10.28796 -10.28681 -10.28615 -10.27888  -8.11231
 Alpha  occ. eigenvalues --   -6.07694  -6.07659  -6.07631  -1.30278  -1.28968
 Alpha  occ. eigenvalues --   -1.22199  -1.21575  -1.21566  -1.11806  -1.09711
 Alpha  occ. eigenvalues --   -0.98558  -0.96765  -0.95989  -0.90338  -0.87640
 Alpha  occ. eigenvalues --   -0.79684  -0.75254  -0.71466  -0.69240  -0.65531
 Alpha  occ. eigenvalues --   -0.62364  -0.60975  -0.59829  -0.58340  -0.58136
 Alpha  occ. eigenvalues --   -0.57828  -0.57399  -0.56911  -0.55771  -0.54071
 Alpha  occ. eigenvalues --   -0.52976  -0.51710  -0.51324  -0.45981  -0.45845
 Alpha  occ. eigenvalues --   -0.45732  -0.45567  -0.44590  -0.44047  -0.43152
 Alpha  occ. eigenvalues --   -0.42878  -0.41722  -0.41545  -0.39698  -0.37001
 Alpha  occ. eigenvalues --   -0.36862  -0.35506  -0.35310  -0.34668  -0.32217
 Alpha  occ. eigenvalues --   -0.31516  -0.28954  -0.28541  -0.27735  -0.24584
 Alpha virt. eigenvalues --   -0.17343  -0.12970  -0.12892  -0.06606  -0.04833
 Alpha virt. eigenvalues --    0.01850   0.07546   0.08599   0.09805   0.11072
 Alpha virt. eigenvalues --    0.11791   0.12086   0.12481   0.12753   0.13361

 Mulliken atomic charges:
              1
     1  C   -0.093694
     2  C    0.024307
     3  C    0.256764
     4  C    0.313038
     5  C   -0.103536
     6  C   -0.057945
     7  H    0.155085
     8  H    0.194621
     9  N    0.105661
    10  N    0.015870
    11  S    1.170425
    12  C    0.565835
    13  O   -0.632610
    14  O   -0.507104
    15  O   -0.623887
    16  F   -0.275250
    17  F   -0.235311
    18  F   -0.237044
    19  H    0.144891
    20  H    0.171070
    21  N    0.388859
    22  O   -0.382001
    23  O   -0.358043
 Sum of Mulliken atomic charges =   0.00000

 Dipole moment (field-independent basis, Debye):
    X=              8.9360    Y=              7.1193    Z=             -2.6721  Tot=             11.7336
 Quadrupole moment (field-independent basis, Debye-Ang):
   XX=           -122.8652   YY=           -102.5039   ZZ=           -113.1304
   XY=              3.0118   XZ=             -0.7142   YZ=              2.0247

  Exact polarizability: 185.855  11.949 152.250  16.554   5.750  72.041
 Approx polarizability: 290.511  32.255 292.951  47.623  22.235 129.222

                     1                      2                      3
                     A                      A                      A
 Frequencies --    21.7240                27.9104                46.5448
 Red. masses --    11.1760                11.7425                11.2793
 Frc consts  --     0.0031                 0.0054                 0.0144
 IR Inten    --     1.3317                 1.1059                 0.5695

                     4                      5                      6
                     A                      A                      A
 Frequencies --    47.8547                52.5964                73.0975
 Red. masses --    16.2572                12.6281                10.4695
 Frc consts  --     0.0219                 0.0206                 0.0330
 IR Inten    --     1.1884                 1.6143                 5.3829

                     7                      8                      9
                     A                      A                      A
 Frequencies --   107.9382               123.7948               145.1369
 Red. masses --    14.2385                13.7429                 5.2036
 Frc consts  --     0.0977                 0.1241                 0.0646
 IR Inten    --     3.5097                12.4837                 0.6038

                    10                     11                     12
                     A                      A                      A
 Frequencies --   182.0684               189.8152               198.0278
 Red. masses --    13.5974                 6.8703                16.7469
 Frc consts  --     0.2656                 0.1458                 0.3869
 IR Inten    --    86.8472                 1.2527                 2.1975

                    13                     14                     15
                     A                      A                      A
 Frequencies --   214.7243               269.7842               301.5306
 Red. masses --    16.7185                 7.7080                17.7353
 Frc consts  --     0.4542                 0.3305                 0.9501
 IR Inten    --    21.9512                 4.3561                 6.4185

                    16                     17                     18
                     A                      A                      A
 Frequencies --   330.8364               342.5509               375.4286
 Red. masses --    17.4068                17.3526                11.0260
 Frc consts  --     1.1225                 1.1997                 0.9156
 IR Inten    --     0.4869                17.6718                 3.0162

                    19                     20                     21
                     A                      A                      A
 Frequencies --   393.3540               431.2939               445.4517
 Red. masses --     5.1816                13.5173                 4.2574
 Frc consts  --     0.4724                 1.4814                 0.4977
 IR Inten    --     3.3026                 3.5606                 0.7625

                    22                     23                     24
                     A                      A                      A
 Frequencies --   490.8166               505.4564               527.6469
 Red. masses --    17.7045                16.9940                 8.9560
 Frc consts  --     2.5129                 2.5581                 1.4691
 IR Inten    --    16.5192                44.6818                 9.4164

                    25                     26                     27
                     A                      A                      A
 Frequencies --   554.9301               555.3031               561.5934
 Red. masses --    15.2005                 5.9373                15.7428
 Frc consts  --     2.7579                 1.0787                 2.9253
 IR Inten    --     4.7143                 1.7940                22.3073

                    28                     29                     30
                     A                      A                      A
 Frequencies --   586.8174               618.7703               669.3710
 Red. masses --     7.2221                20.2678                 5.9829
 Frc consts  --     1.4653                 4.5721                 1.5794
 IR Inten    --    10.5803               141.1480                 6.2690

                    31                     32                     33
                     A                      A                      A
 Frequencies --   674.5596               740.0364               751.4422
 Red. masses --     5.7025                 3.9447                18.3060
 Frc consts  --     1.5288                 1.2728                 6.0902
 IR Inten    --    14.3536                25.3867                 2.3842

                    34                     35                     36
                     A                      A                      A
 Frequencies --   791.7698               809.5661               867.4856
 Red. masses --     6.7710                 1.4370                 9.9388
 Frc consts  --     2.5009                 0.5549                 4.4066
 IR Inten    --     6.8737                33.8863                38.8164

                    37                     38                     39
                     A                      A                      A
 Frequencies --   934.4215               962.1982              1019.0657
 Red. masses --     1.3549                11.9757                 1.3461
 Frc consts  --     0.6970                 6.5325                 0.8237
 IR Inten    --     3.4534               236.2053                 6.6605

                    40                     41                     42
                     A                      A                      A
 Frequencies --  1037.1567              1057.1396              1090.1575
 Red. masses --     1.3200                 2.2344                 3.6937
 Frc consts  --     0.8366                 1.4712                 2.5863
 IR Inten    --     8.0926                 1.9771                 3.0407

                    43                     44                     45
                     A                      A                      A
 Frequencies --  1139.9871              1156.5860              1177.8850
 Red. masses --    15.1222                 4.7973                 2.1223
 Frc consts  --    11.5788                 3.7809                 1.7349
 IR Inten    --   175.2336               107.4542                 7.2332

                    46                     47                     48
                     A                      A                      A
 Frequencies --  1185.5377              1197.9619              1231.4438
 Red. masses --     3.2225                 1.2279                13.4663
 Frc consts  --     2.6686                 1.0383                12.0317
 IR Inten    --    94.3390                 1.9463               171.7607

                    49                     50                     51
                     A                      A                      A
 Frequencies --  1249.7100              1293.5947              1299.1498
 Red. masses --    13.1878                 2.4254                 3.7196
 Frc consts  --    12.1350                 2.3913                 3.6988
 IR Inten    --   252.4499               267.9597               210.2195

                    52                     53                     54
                     A                      A                      A
 Frequencies --  1384.6506              1392.5972              1476.6981
 Red. masses --     7.8509                11.1039                 2.2240
 Frc consts  --     8.8685                12.6875                 2.8573
 IR Inten    --   139.9844                98.0132                 1.5341

                    55                     56                     57
                     A                      A                      A
 Frequencies --  1513.8014              1612.0012              1631.5390
 Red. masses --     2.4697                 5.6852                 8.0418
 Frc consts  --     3.3345                 8.7041                12.6124
 IR Inten    --     3.7426                45.6124               122.4456

                    58                     59                     60
                     A                      A                      A
 Frequencies --  1669.7158              2308.4511              3216.0821
 Red. masses --    10.7450                13.9793                 1.0898
 Frc consts  --    17.6499                43.8912                 6.6410
 IR Inten    --   111.2694               162.2803                 7.8150

                    61                     62                     63
                     A                      A                      A
 Frequencies --  3224.5267              3232.9240              3249.9220
 Red. masses --     1.0949                 1.0965                 1.0935
 Frc consts  --     6.7072                 6.7524                 6.8047
 IR Inten    --    58.6890                12.2503                 7.7692

 - Thermochemistry -
 -------------------
 Temperature   298.150 Kelvin.  Pressure   1.00000 Atm.
 Atom     1 has atomic number  6 and mass  12.00000

 Molecular mass:   298.98238 amu.
 Principal axes and moments of inertia in atomic units:
                           1         2         3
     Eigenvalues --  2546.214178852.13292**********
           X            0.99987   0.01623   0.00181
           Y           -0.01622   0.99986  -0.00306
           Z           -0.00186   0.00303   0.99999
 This molecule is an asymmetric top.
 Rotational symmetry number  1.
 Warning -- assumption of classical behavior for rotation
           may cause significant error
 Rotational temperatures (Kelvin)      0.03402     0.00978     0.00833
 Rotational constants (GHZ):           0.70879     0.20388     0.17362
 Zero-point vibrational energy     340767.8 (Joules/Mol)
                                   81.44547 (Kcal/Mol)
 Warning -- explicit consideration of  29 degrees of freedom as
           vibrations may cause significant error
 Vibrational temperatures:     31.26    40.16    66.97    68.85    75.67
          (Kelvin)            105.17   155.30   178.11   208.82   261.96
                              273.10   284.92   308.94   388.16   433.83
                              476.00   492.85   540.16   565.95   620.53
                              640.90   706.17   727.24   759.17   798.42
                              798.96   808.01   844.30   890.27   963.07
                              970.54  1064.75  1081.16  1139.18  1164.78
                             1248.12  1344.42  1384.39  1466.21  1492.24
                             1520.99  1568.49  1640.19  1664.07  1694.71
                             1705.72  1723.60  1771.77  1798.05  1861.19
                             1869.18  1992.20  2003.63  2124.64  2178.02
                             2319.31  2347.42  2402.35  3321.34  4627.22
                             4639.37  4651.45  4675.91

 Zero-point correction=                           0.129792 (Hartree/Particle)
 Thermal correction to Energy=                    0.147434
 Thermal correction to Enthalpy=                  0.148378
 Thermal correction to Gibbs Free Energy=         0.080921
 Sum of electronic and zero-point Energies=          -1506.847037
 Sum of electronic and thermal Energies=             -1506.829394
 Sum of electronic and thermal Enthalpies=           -1506.828450
 Sum of electronic and thermal Free Energies=        -1506.895907

                     E (Thermal)             CV                S
                      KCal/Mol        Cal/Mol-Kelvin    Cal/Mol-Kelvin
 Total                   92.516             62.072            141.976
 Electronic               0.000              0.000              0.000
 Translational            0.889              2.981             42.983
 Rotational               0.889              2.981             33.815
 Vibrational             90.739             56.110             65.178
 Vibration     1          0.593              1.985              6.470
 Vibration     2          0.593              1.984              5.973
 Vibration     3          0.595              1.979              4.959
 Vibration     4          0.595              1.978              4.904
 Vibration     5          0.596              1.977              4.717
 Vibration     6          0.599              1.967              4.068
 Vibration     7          0.606              1.943              3.306
 Vibration     8          0.610              1.929              3.040
 Vibration     9          0.617              1.908              2.735
 Vibration    10          0.630              1.864              2.307
 Vibration    11          0.633              1.854              2.230
 Vibration    12          0.637              1.843              2.151
 Vibration    13          0.645              1.819              2.003
 Vibration    14          0.674              1.729              1.598
 Vibration    15          0.694              1.671              1.408
 Vibration    16          0.713              1.614              1.256
 Vibration    17          0.722              1.590              1.200
 Vibration    18          0.746              1.522              1.058
 Vibration    19          0.761              1.484              0.987
 Vibration    20          0.792              1.402              0.854
 Vibration    21          0.805              1.371              0.810
 Vibration    22          0.847              1.270              0.681
 Vibration    23          0.861              1.238              0.645
 Vibration    24          0.883              1.189              0.592
 Vibration    25          0.910              1.129              0.534
 Vibration    26          0.911              1.128              0.533
 Vibration    27          0.917              1.114              0.521
 Vibration    28          0.944              1.060              0.473
 Vibration    29          0.979              0.992              0.418

 Normal termination of Gaussian 09 at Thu Mar  3 18:17:08 2005.
