 Gaussian 09, Revision B.01,
 Gaussian 09:  EM64L-G09RevB.01 12-Aug-2010

 ----------------------------
 # opt freq rb3lyp/6-31G(d,p)
 ----------------------------

 ----------------------------
 2-NO2-Ph-N2+-RB3LYP-6-31G_dp
 ----------------------------
 Symbolic Z-matrix:
 Charge =  1 Multiplicity = 1

 SCF Done:  E(RB3LYP) =  -545.328570369     A.U. after   17 cycles
 SCF Done:  E(RB3LYP) =  -545.328326988     A.U. after   18 cycles
 SCF Done:  E(RB3LYP) =  -545.329270063     A.U. after   15 cycles
 SCF Done:  E(RB3LYP) =  -545.318438555     A.U. after   17 cycles
 SCF Done:  E(RB3LYP) =  -545.329471091     A.U. after   18 cycles
 SCF Done:  E(RB3LYP) =  -545.329610032     A.U. after   14 cycles
 SCF Done:  E(RB3LYP) =  -545.329630764     A.U. after   11 cycles
 SCF Done:  E(RB3LYP) =  -545.329633036     A.U. after   20 cycles
 Optimization completed.
    -- Stationary point found.
 Normal termination of Gaussian 09 at Thu Apr  7 02:16:40 2005.

 ----------------------------------------------------------------------
 #N Geom=AllCheck Guess=TCheck SCRF=Check GenChk RB3LYP/6-31G(d,p) Freq
 ----------------------------------------------------------------------

 2-NO2-Ph-N2+-RB3LYP-6-31G_dp
 ----------------------------
 Redundant internal coordinates taken from checkpoint file:
 /home/ubuntu/g09/Gau-24854.chk
 Charge =  1 Multiplicity = 1

                         Standard orientation:
 ---------------------------------------------------------------------
 Center     Atomic      Atomic             Coordinates (Angstroms)
 Number     Number       Type             X           Y           Z
 ---------------------------------------------------------------------
      1          6           0        2.632441    0.240611    0.000002
      2          6           0        1.640504    1.218526   -0.000743
      3          6           0        0.299685    0.799417   -0.000472
      4          6           0       -0.049890   -0.566919   -0.000238
      5          6           0        0.947124   -1.521477    0.000472
      6          6           0        2.290223   -1.114270    0.000574
      7          1           0        3.673794    0.543493    0.000478
      8          1           0        1.885395    2.275137   -0.001429
      9          7           0       -0.662851    1.797984   -0.000795
     10          7           0       -1.275739    2.727781    0.001335
     11          1           0        3.070770   -1.867952    0.001009
     12          1           0        0.665197   -2.568520    0.000817
     13          7           0       -1.469906   -0.969725   -0.000088
     14          8           0       -2.281702   -0.041780    0.000144
     15          8           0       -1.717823   -2.159441   -0.000346
 ---------------------------------------------------------------------

 SCF Done:  E(RB3LYP) =  -545.329633036     A.U. after    1 cycles

 The electronic state is 1-A.
 Alpha  occ. eigenvalues --  -19.36675 -19.36538 -14.75830 -14.74414 -14.70395
 Alpha  occ. eigenvalues --  -10.50232 -10.47013 -10.43824 -10.41764 -10.41572
 Alpha  occ. eigenvalues --  -10.41277  -1.41216  -1.38736  -1.24234  -1.13087
 Alpha  occ. eigenvalues --   -1.04606  -1.00805  -0.93303  -0.88402  -0.83086
 Alpha  occ. eigenvalues --   -0.78795  -0.74255  -0.73857  -0.72563  -0.71300
 Alpha  occ. eigenvalues --   -0.70463  -0.69483  -0.67941  -0.65937  -0.65300
 Alpha  occ. eigenvalues --   -0.59275  -0.58774  -0.57731  -0.49230  -0.48728
 Alpha  occ. eigenvalues --   -0.48488  -0.48072  -0.47589
 Alpha virt. eigenvalues --   -0.31526  -0.28630  -0.25905  -0.20184  -0.18367
 Alpha virt. eigenvalues --   -0.12288  -0.04980  -0.04820  -0.04037  -0.01481
 Alpha virt. eigenvalues --    0.00425   0.01380   0.06570   0.09333   0.10010

 Mulliken atomic charges:
              1
     1  C   -0.073611
     2  C   -0.011879
     3  C    0.253988
     4  C    0.335088
     5  C   -0.087423
     6  C   -0.046816
     7  H    0.186967
     8  H    0.193732
     9  N    0.123652
    10  N    0.009309
    11  H    0.189427
    12  H    0.209054
    13  N    0.414173
    14  O   -0.380727
    15  O   -0.314932
 Sum of Mulliken atomic charges =   1.00000

 Dipole moment (field-independent basis, Debye):
    X=              5.9039    Y=              3.0939    Z=             -0.0004  Tot=              6.6654
 Quadrupole moment (field-independent basis, Debye-Ang):
   XX=            -43.4389   YY=            -40.9814   ZZ=            -58.2189
   XY=             -4.8919   XZ=              0.0028   YZ=             -0.0076

  Exact polarizability: 114.666 -13.035 116.137  -0.004   0.002  30.497
 Approx polarizability: 206.376 -46.255 244.713  -0.021   0.025  47.688

                     1                      2                      3
                     A                      A                      A
 Frequencies --    65.4317               118.5483               189.8217
 Red. masses --    15.1353                 5.0731                 6.3321
 Frc consts  --     0.0382                 0.0420                 0.1344
 IR Inten    --     0.3751                 1.0297                 0.3706

                     4                      5                      6
                     A                      A                      A
 Frequencies --   204.9629               239.2879               359.5279
 Red. masses --    13.1916                 7.8357                10.6753
 Frc consts  --     0.3265                 0.2643                 0.8130
 IR Inten    --     1.4461                13.7193                 9.8851

                     7                      8                      9
                     A                      A                      A
 Frequencies --   395.1397               435.2902               436.0286
 Red. masses --     4.0515                13.5925                 4.2729
 Frc consts  --     0.3727                 1.5174                 0.4786
 IR Inten    --     0.0002                 4.1735                 0.3314

                    10                     11                     12
                     A                      A                      A
 Frequencies --   524.3451               558.8545               585.6605
 Red. masses --     9.2546                 6.2354                 7.0695
 Frc consts  --     1.4991                 1.1474                 1.4287
 IR Inten    --     0.5374                 7.2998                 1.3917

                    13                     14                     15
                     A                      A                      A
 Frequencies --   652.4848               668.7460               733.7299
 Red. masses --     4.0506                 6.9498                 4.8952
 Frc consts  --     1.0160                 1.8312                 1.5527
 IR Inten    --    11.8824                 3.8994                19.0127

                    16                     17                     18
                     A                      A                      A
 Frequencies --   781.0022               797.6707               861.4996
 Red. masses --     6.8250                 1.3666                10.1306
 Frc consts  --     2.4528                 0.5123                 4.4299
 IR Inten    --    10.3486                40.6389                38.8791

                    19                     20                     21
                     A                      A                      A
 Frequencies --   918.7283              1002.5659              1041.2579
 Red. masses --     1.3535                 1.3529                 1.3727
 Frc consts  --     0.6731                 0.8012                 0.8769
 IR Inten    --     0.6973                 1.3970                 0.5119

                    22                     23                     24
                     A                      A                      A
 Frequencies --  1053.5208              1087.0059              1167.7027
 Red. masses --     2.3521                 5.0524                 2.6313
 Frc consts  --     1.5382                 3.5173                 2.1139
 IR Inten    --     2.5815                 7.8252                89.7443

                    25                     26                     27
                     A                      A                      A
 Frequencies --  1176.0907              1205.5289              1293.3602
 Red. masses --     1.8125                 1.1566                 1.6022
 Frc consts  --     1.4771                 0.9904                 1.5791
 IR Inten    --    20.3472                 4.9670                 3.3973

                    28                     29                     30
                     A                      A                      A
 Frequencies --  1376.7255              1395.3858              1479.1267
 Red. masses --    10.3792                 7.3048                 2.1710
 Frc consts  --    11.5907                 8.3801                 2.7984
 IR Inten    --   164.7329                 8.2551                 4.1402

                    31                     32                     33
                     A                      A                      A
 Frequencies --  1506.6824              1604.7796              1626.4671
 Red. masses --     2.4586                 5.5249                 6.6799
 Frc consts  --     3.2884                 8.3831                10.4115
 IR Inten    --     8.3752                66.9487                89.4527

                    34                     35                     36
                     A                      A                      A
 Frequencies --  1679.9438              2364.1167              3221.5465
 Red. masses --    13.0279                13.9658                 1.0902
 Frc consts  --    21.6628                45.9888                 6.6661
 IR Inten    --   135.2388               140.8221                 1.1241

                    37                     38                     39
                     A                      A                      A
 Frequencies --  3227.6514              3235.0573              3239.2791
 Red. masses --     1.0930                 1.0958                 1.0969
 Frc consts  --     6.7085                 6.7570                 6.7816
 IR Inten    --     3.3561                22.8222                14.2836

 - Thermochemistry -
 -------------------
 Temperature   298.150 Kelvin.  Pressure   1.00000 Atm.
 Atom     1 has atomic number  6 and mass  12.00000

 Molecular mass:   150.03035 amu.
 Principal axes and moments of inertia in atomic units:
                           1         2         3
     Eigenvalues --  1162.757371451.718242614.47521
           X            0.99989  -0.01508   0.00001
           Y            0.01508   0.99989  -0.00002
           Z           -0.00001   0.00002   1.00000
 This molecule is an asymmetric top.
 Rotational symmetry number  1.
 Warning -- assumption of classical behavior for rotation
           may cause significant error
 Rotational temperatures (Kelvin)      0.07449     0.05966     0.03313
 Rotational constants (GHZ):           1.55212     1.24318     0.69029
 Zero-point vibrational energy     266232.2 (Joules/Mol)
                                   63.63103 (Kcal/Mol)
 Warning -- explicit consideration of  12 degrees of freedom as
           vibrations may cause significant error
 Vibrational temperatures:     94.14   170.56   273.11   294.90   344.28
          (Kelvin)            517.28   568.52   626.28   627.35   754.41
                              804.07   842.63   938.78   962.18  1055.67
                             1123.69  1147.67  1239.50  1321.84  1442.47
                             1498.14  1515.78  1563.96  1680.06  1692.13
                             1734.49  1860.85  1980.80  2007.65  2128.13
                             2167.78  2308.92  2340.12  2417.06  3401.43
                             4635.08  4643.86  4654.52  4660.59

 Zero-point correction=                           0.101403 (Hartree/Particle)
 Thermal correction to Energy=                    0.110004
 Thermal correction to Enthalpy=                  0.110948
 Thermal correction to Gibbs Free Energy=         0.067245
 Sum of electronic and zero-point Energies=           -545.228231
 Sum of electronic and thermal Energies=              -545.219629
 Sum of electronic and thermal Enthalpies=            -545.218685
 Sum of electronic and thermal Free Energies=         -545.262388

                     E (Thermal)             CV                S
                      KCal/Mol        Cal/Mol-Kelvin    Cal/Mol-Kelvin
 Total                   69.029             32.120             91.982
 Electronic               0.000              0.000              0.000
 Translational            0.889              2.981             40.927
 Rotational               0.889              2.981             29.869
 Vibrational             67.251             26.158             21.186
 Vibration     1          0.597              1.971              4.286
 Vibration     2          0.609              1.934              3.124
 Vibration     3          0.633              1.854              2.230
 Vibration     4          0.640              1.833              2.088
 Vibration     5          0.657              1.780              1.808
 Vibration     6          0.734              1.556              1.124
 Vibration     7          0.762              1.481              0.981
 Vibration     8          0.796              1.393              0.842
 Vibration     9          0.796              1.392              0.839
 Vibration    10          0.879              1.196              0.600
 Vibration    11          0.914              1.120              0.526
 Vibration    12          0.943              1.062              0.475

 Normal termination of Gaussian 09 at Thu Apr  7 02:18:12 2005.
