 Gaussian 09, Revision B.01,
 Gaussian 09:  EM64L-G09RevB.01 12-Aug-2010

 ----------------------------
 # opt freq rb3lyp/6-31G(d,p)
 ----------------------------

 ----------------------------
 3-NO2-Ph-N2+-RB3LYP-6-31G_dp
 ----------------------------
 Symbolic Z-matrix:
 Charge =  1 Multiplicity = 1

 SCF Done:  E(RB3LYP) =  -545.328345777     A.U. after   19 cycles
 SCF Done:  E(RB3LYP) =  -545.330152203     A.U. after   14 cycles
 SCF Done:  E(RB3LYP) =  -545.330437518     A.U. after   15 cycles
 SCF Done:  E(RB3LYP) =  -545.330909740     A.U. after   14 cycles
 SCF Done:  E(RB3LYP) =  -545.331037562     A.U. after   12 cycles
 SCF Done:  E(RB3LYP) =  -545.331129565     A.U. after   13 cycles
 SCF Done:  E(RB3LYP) =  -545.331130288     A.U. after    8 cycles
 SCF Done:  E(RB3LYP) =  -545.331134391     A.U. after   20 cycles
 Optimization completed.
    -- Stationary point found.
 Normal termination of Gaussian 09 at Thu Apr  7 02:20:22 2005.

 ----------------------------------------------------------------------
 #N Geom=AllCheck Guess=TCheck SCRF=Check GenChk RB3LYP/6-31G(d,p) Freq
 ----------------------------------------------------------------------

 3-NO2-Ph-N2+-RB3LYP-6-31G_dp
 ----------------------------
 Redundant internal coordinates taken from checkpoint file:
 /home/ubuntu/g09/Gau-25917.chk
 Charge =  1 Multiplicity = 1

                         Standard orientation:
 ---------------------------------------------------------------------
 Center     Atomic      Atomic             Coordinates (Angstroms)
 Number     Number       Type             X           Y           Z
 ---------------------------------------------------------------------
      1          6           0        0.448406    2.139423    0.000033
      2          6           0        1.619789    1.395475   -0.000057
      3          6           0        1.494149   -0.010443   -0.000026
      4          6           0        0.265694   -0.694289   -0.000026
      5          6           0       -0.862512    0.104383   -0.000027
      6          6           0       -0.798033    1.498939    0.000010
      7          1           0        0.501495    3.222327    0.000089
      8          1           0        2.596565    1.866620   -0.000003
      9          1           0        0.181885   -1.775317   -0.000007
     10          7           0        2.648369   -0.766793    0.000026
     11          7           0        3.580318   -1.377370    0.000018
     12          1           0       -1.724512    2.063165    0.000049
     13          7           0       -2.192632   -0.566784    0.000003
     14          8           0       -3.170029    0.165548   -0.000002
     15          8           0       -2.181569   -1.790685    0.000014
 ---------------------------------------------------------------------

 SCF Done:  E(RB3LYP) =  -545.331134391     A.U. after    1 cycles

 The electronic state is 1-A.
 Alpha  occ. eigenvalues --  -19.34078 -19.33963 -14.75298 -14.73293 -14.71777
 Alpha  occ. eigenvalues --  -10.50176 -10.44790 -10.44145 -10.43982 -10.42213
 Alpha  occ. eigenvalues --  -10.41328  -1.39993  -1.38602  -1.21684  -1.13454
 Alpha  occ. eigenvalues --   -1.05700  -0.99654  -0.92784  -0.89470  -0.82236
 Alpha  occ. eigenvalues --   -0.76752  -0.75093  -0.73988  -0.72988  -0.70583
 Alpha  occ. eigenvalues --   -0.69622  -0.69190  -0.68059  -0.65764  -0.64831
 Alpha  occ. eigenvalues --   -0.59899  -0.59453  -0.58104  -0.49280  -0.48208
 Alpha  occ. eigenvalues --   -0.46216  -0.46201  -0.45006
 Alpha virt. eigenvalues --   -0.31471  -0.29851  -0.25712  -0.20378  -0.17291
 Alpha virt. eigenvalues --   -0.11718  -0.05216  -0.04977  -0.04047  -0.01384
 Alpha virt. eigenvalues --    0.00631   0.01567   0.04717   0.08649   0.10868

 Mulliken atomic charges:
              1
     1  C   -0.089801
     2  C   -0.011846
     3  C    0.243795
     4  C   -0.029117
     5  C    0.243437
     6  C   -0.033157
     7  H    0.189404
     8  H    0.192508
     9  H    0.218930
    10  N    0.134837
    11  N   -0.004448
    12  H    0.211990
    13  N    0.420930
    14  O   -0.337787
    15  O   -0.349674
 Sum of Mulliken atomic charges =   1.00000

 Dipole moment (field-independent basis, Debye):
    X=              8.4569    Y=              2.4734    Z=              0.0001  Tot=              8.8112
 Quadrupole moment (field-independent basis, Debye-Ang):
   XX=            -40.7650   YY=            -44.2593   ZZ=            -58.2158
   XY=             -5.3662   XZ=              0.0001   YZ=              0.0003

  Exact polarizability: 132.331 -16.296 100.640   0.000   0.000  30.695
 Approx polarizability: 242.139 -58.146 204.105  -0.001   0.000  47.826

                     1                      2                      3
                     A                      A                      A
 Frequencies --    58.4991               136.9163               138.7698
 Red. masses --    13.7106                12.0565                 6.4845
 Frc consts  --     0.0276                 0.1332                 0.0736
 IR Inten    --     0.0534                 2.7651                 0.5914

                     4                      5                      6
                     A                      A                      A
 Frequencies --   176.7264               261.4669               375.6882
 Red. masses --     4.9676                 7.2290                10.7920
 Frc consts  --     0.0914                 0.2912                 0.8974
 IR Inten    --     1.1909                 0.8473                 4.1648

                     7                      8                      9
                     A                      A                      A
 Frequencies --   402.5943               431.2252               445.8513
 Red. masses --     4.0151                 4.3048                 9.2429
 Frc consts  --     0.3834                 0.4716                 1.0825
 IR Inten    --     0.0008                 0.1238                 7.0623

                    10                     11                     12
                     A                      A                      A
 Frequencies --   520.3838               567.8832               576.6517
 Red. masses --     9.9882                 8.4398                 6.4191
 Frc consts  --     1.5936                 1.6036                 1.2576
 IR Inten    --     1.2432                 8.6207                 0.3039

                    13                     14                     15
                     A                      A                      A
 Frequencies --   647.5874               673.5212               732.6945
 Red. masses --     2.7569                 7.5316                 4.8877
 Frc consts  --     0.6812                 2.0130                 1.5460
 IR Inten    --    13.3195                 5.2167                26.6476

                    16                     17                     18
                     A                      A                      A
 Frequencies --   798.1024               819.1736               908.3224
 Red. masses --    10.7408                 1.4004                 6.7109
 Frc consts  --     4.0309                 0.5537                 3.2622
 IR Inten    --    30.3006                21.3876                30.8466

                    19                     20                     21
                     A                      A                      A
 Frequencies --   935.1146               975.2814              1010.1849
 Red. masses --     1.4913                 1.3372                 6.1899
 Frc consts  --     0.7683                 0.7494                 3.7217
 IR Inten    --    14.9521                 0.0062                 4.7400

                    22                     23                     24
                     A                      A                      A
 Frequencies --  1032.8739              1088.2883              1113.4711
 Red. masses --     1.3681                 1.7006                 1.5624
 Frc consts  --     0.8599                 1.1867                 1.1413
 IR Inten    --     0.0317                72.3105                15.4687

                    25                     26                     27
                     A                      A                      A
 Frequencies --  1162.4633              1200.7794              1302.2089
 Red. masses --     6.3083                 1.1429                 1.3776
 Frc consts  --     5.0225                 0.9709                 1.3764
 IR Inten    --    76.1860                 2.6016                 0.1903

                    28                     29                     30
                     A                      A                      A
 Frequencies --  1384.3370              1387.3083              1465.1437
 Red. masses --    11.1236                10.7583                 2.6083
 Frc consts  --    12.5597                12.1994                 3.2989
 IR Inten    --    50.5980               140.9837                11.6461

                    31                     32                     33
                     A                      A                      A
 Frequencies --  1492.1820              1609.4147              1619.7033
 Red. masses --     2.3797                 6.0392                 6.4983
 Frc consts  --     3.1218                 9.2165                10.0444
 IR Inten    --    18.2616                 7.2272                39.8648

                    34                     35                     36
                     A                      A                      A
 Frequencies --  1694.6188              2360.3086              3226.8398
 Red. masses --    12.9473                13.9440                 1.0908
 Frc consts  --    21.9065                45.7695                 6.6918
 IR Inten    --   210.4931               239.3829                 0.6564

                    37                     38                     39
                     A                      A                      A
 Frequencies --  3234.7863              3239.7216              3240.6341
 Red. masses --     1.0938                 1.0945                 1.0978
 Frc consts  --     6.7432                 6.7684                 6.7925
 IR Inten    --    22.9878                43.0740                 7.0348

 - Thermochemistry -
 -------------------
 Temperature   298.150 Kelvin.  Pressure   1.00000 Atm.
 Atom     1 has atomic number  6 and mass  12.00000

 Molecular mass:   150.03035 amu.
 Principal axes and moments of inertia in atomic units:
                           1         2         3
     Eigenvalues --   797.896712392.896733190.79343
           X            0.99998   0.00593   0.00000
           Y           -0.00593   0.99998   0.00000
           Z            0.00000   0.00000   1.00000
 This molecule is an asymmetric top.
 Rotational symmetry number  1.
 Warning -- assumption of classical behavior for rotation
           may cause significant error
 Rotational temperatures (Kelvin)      0.10855     0.03620     0.02714
 Rotational constants (GHZ):           2.26187     0.75421     0.56561
 Zero-point vibrational energy     265856.4 (Joules/Mol)
                                   63.54121 (Kcal/Mol)
 Warning -- explicit consideration of  12 degrees of freedom as
           vibrations may cause significant error
 Vibrational temperatures:     84.17   196.99   199.66   254.27   376.19
          (Kelvin)            540.53   579.24   620.44   641.48   748.72
                              817.06   829.67   931.73   969.05  1054.18
                             1148.29  1178.61  1306.87  1345.42  1403.21
                             1453.43  1486.07  1565.80  1602.03  1672.52
                             1727.65  1873.59  1991.75  1996.02  2108.01
                             2146.91  2315.59  2330.39  2438.18  3395.95
                             4642.70  4654.13  4661.23  4662.54

 Zero-point correction=                           0.101259 (Hartree/Particle)
 Thermal correction to Energy=                    0.109908
 Thermal correction to Enthalpy=                  0.110852
 Thermal correction to Gibbs Free Energy=         0.066747
 Sum of electronic and zero-point Energies=           -545.229875
 Sum of electronic and thermal Energies=              -545.221226
 Sum of electronic and thermal Enthalpies=            -545.220282
 Sum of electronic and thermal Free Energies=         -545.264388

                     E (Thermal)             CV                S
                      KCal/Mol        Cal/Mol-Kelvin    Cal/Mol-Kelvin
 Total                   68.968             32.104             92.828
 Electronic               0.000              0.000              0.000
 Translational            0.889              2.981             40.927
 Rotational               0.889              2.981             30.189
 Vibrational             67.191             26.142             21.712
 Vibration     1          0.596              1.974              4.507
 Vibration     2          0.614              1.916              2.847
 Vibration     3          0.614              1.915              2.821
 Vibration     4          0.628              1.871              2.363
 Vibration     5          0.669              1.743              1.652
 Vibration     6          0.747              1.522              1.056
 Vibration     7          0.768              1.465              0.953
 Vibration     8          0.792              1.402              0.855
 Vibration     9          0.805              1.370              0.808
 Vibration    10          0.875              1.205              0.609
 Vibration    11          0.924              1.101              0.508
 Vibration    12          0.933              1.082              0.492

 Optimization completed.
    -- Stationary point found.
 Normal termination of Gaussian 09 at Thu Apr  7 02:21:50 2005.
