 Gaussian 09, Revision B.01,
 Gaussian 09:  EM64L-G09RevB.01 12-Aug-2010

 ----------------------------------------------------------------------
 #p Temperature=298.15 opt=(maxcycles=1024) SCF=(maxcycles=1024) freq R
 B3LYP/aug-cc-pVDZ
 ----------------------------------------------------------------------

 ---------------------------------------
 3-NO2-Ph-N2+-RB3LYP-aug-cc-pVDZ-Singlet
 ---------------------------------------
 Symbolic Z-matrix:
 Charge =  1 Multiplicity = 1

 SCF Done:  E(RB3LYP) =  -545.393677644     A.U. after   19 cycles
 SCF Done:  E(RB3LYP) =  -545.395218322     A.U. after   13 cycles
 SCF Done:  E(RB3LYP) =  -545.395053006     A.U. after   15 cycles
 SCF Done:  E(RB3LYP) =  -545.395522791     A.U. after   13 cycles
 SCF Done:  E(RB3LYP) =  -545.395993883     A.U. after   18 cycles
 SCF Done:  E(RB3LYP) =  -545.396120555     A.U. after   18 cycles
 SCF Done:  E(RB3LYP) =  -545.396138547     A.U. after   12 cycles
 SCF Done:  E(RB3LYP) =  -545.396139804     A.U. after   23 cycles
 Optimization completed.
    -- Stationary point found.
 Normal termination of Gaussian 09 at Sat May 26 18:46:07 2018.

 ----------------------------------------------------------------------
 #P Geom=AllCheck Guess=TCheck SCRF=Check GenChk RB3LYP/Aug-CC-pVDZ Fre
 q
 ----------------------------------------------------------------------

 3-NO2-Ph-N2+-RB3LYP-aug-cc-pVDZ-Singlet
 ---------------------------------------
 Redundant internal coordinates taken from checkpoint file:
 /home/ubuntu/g09/Gau-10723.chk
 Charge =  1 Multiplicity = 1

                         Standard orientation:
 ---------------------------------------------------------------------
 Center     Atomic      Atomic             Coordinates (Angstroms)
 Number     Number       Type             X           Y           Z
 ---------------------------------------------------------------------
      1          6           0        0.451353    2.142233    0.000055
      2          6           0        1.624427    1.396625    0.000019
      3          6           0        1.495139   -0.008967   -0.000017
      4          6           0        0.266960   -0.694427   -0.000020
      5          6           0       -0.863927    0.105482   -0.000005
      6          6           0       -0.797737    1.501975    0.000018
      7          1           0        0.505322    3.229879    0.000083
      8          1           0        2.605726    1.868857    0.000120
      9          1           0        0.187140   -1.780180   -0.000063
     10          7           0        2.654420   -0.770996   -0.000018
     11          7           0        3.584395   -1.382219   -0.000050
     12          1           0       -1.725453    2.073087    0.000084
     13          7           0       -2.197749   -0.566881   -0.000029
     14          8           0       -3.174501    0.162817   -0.000148
     15          8           0       -2.190185   -1.788879    0.000167
 ---------------------------------------------------------------------

 SCF Done:  E(RB3LYP) =  -545.396139804     A.U. after    1 cycles

 The electronic state is 1-A.
 Alpha  occ. eigenvalues --  -19.34413 -19.34309 -14.74777 -14.73357 -14.71378
 Alpha  occ. eigenvalues --  -10.50162 -10.44931 -10.44067 -10.43846 -10.42207
 Alpha  occ. eigenvalues --  -10.41304  -1.40300  -1.39675  -1.22732  -1.13629
 Alpha  occ. eigenvalues --   -1.05972  -1.00049  -0.93096  -0.89928  -0.82572
 Alpha  occ. eigenvalues --   -0.77193  -0.75243  -0.74370  -0.73322  -0.70847
 Alpha  occ. eigenvalues --   -0.70330  -0.69998  -0.68642  -0.66388  -0.65378
 Alpha  occ. eigenvalues --   -0.60185  -0.59898  -0.58397  -0.49712  -0.48689
 Alpha  occ. eigenvalues --   -0.47283  -0.47226  -0.45948
 Alpha virt. eigenvalues --   -0.31829  -0.30071  -0.26713  -0.21358  -0.18432
 Alpha virt. eigenvalues --   -0.16485  -0.12769  -0.12430  -0.11786  -0.10440
 Alpha virt. eigenvalues --   -0.08925  -0.08308  -0.06826  -0.06287  -0.06136

 Mulliken atomic charges:
              1
     1  C    0.648120
     2  C    0.710923
     3  C    0.923801
     4  C    0.795828
     5  C    0.893099
     6  C    0.703887
     7  H   -0.674885
     8  H   -0.755276
     9  H   -0.765598
    10  N    0.464613
    11  N   -0.627390
    12  H   -0.747318
    13  N    0.651493
    14  O   -0.613617
    15  O   -0.607682
 Sum of Mulliken atomic charges =   1.00000

 Dipole moment (field-independent basis, Debye):
    X=              8.5773    Y=              2.5181    Z=              0.0000  Tot=              8.9393
 Quadrupole moment (field-independent basis, Debye-Ang):
   XX=            -41.5857   YY=            -44.8264   ZZ=            -59.0500
   XY=             -5.6312   XZ=             -0.0001   YZ=              0.0012

  Exact polarizability: 143.724 -14.355 110.220   0.000   0.000  48.753
 Approx polarizability: 252.456 -54.038 215.643   0.001  -0.004  77.004

                     1                      2                      3
                     A                      A                      A
 Frequencies --    53.8371               133.7130               137.2388
 Red. masses --    13.6447                12.0786                 6.4645
 Frc consts  --     0.0233                 0.1272                 0.0717
 IR Inten    --     0.0567                 2.7160                 0.6341

                     4                      5                      6
                     A                      A                      A
 Frequencies --   174.9124               254.6694               372.4378
 Red. masses --     4.9150                 7.2692                10.7909
 Frc consts  --     0.0886                 0.2778                 0.8819
 IR Inten    --     1.0505                 0.6455                 4.1665

                     7                      8                      9
                     A                      A                      A
 Frequencies --   401.4169               430.1515               443.0348
 Red. masses --     4.0089                 4.1753                 9.3020
 Frc consts  --     0.3806                 0.4552                 1.0757
 IR Inten    --     0.0085                 0.3733                 7.8814

                    10                     11                     12
                     A                      A                      A
 Frequencies --   515.3401               560.3082               570.9647
 Red. masses --    10.0242                 8.1174                 6.3227
 Frc consts  --     1.5685                 1.5015                 1.2144
 IR Inten    --     1.2124                 6.5858                 0.3367

                    13                     14                     15
                     A                      A                      A
 Frequencies --   652.0125               670.7448               744.6919
 Red. masses --     2.5376                 7.5089                 4.0534
 Frc consts  --     0.6356                 1.9904                 1.3244
 IR Inten    --    16.2942                 4.5122                30.7372

                    16                     17                     18
                     A                      A                      A
 Frequencies --   794.6886               815.4359               901.6224
 Red. masses --    10.5835                 1.4637                 7.0412
 Frc consts  --     3.9380                 0.5734                 3.3724
 IR Inten    --    26.0332                16.5668                33.4354

                    19                     20                     21
                     A                      A                      A
 Frequencies --   927.6692               968.5949              1006.7843
 Red. masses --     1.5561                 1.3621                 6.1821
 Frc consts  --     0.7890                 0.7529                 3.6920
 IR Inten    --    13.8574                 0.0059                 4.0680

                    22                     23                     24
                     A                      A                      A
 Frequencies --  1029.8830              1078.7682              1103.8842
 Red. masses --     1.3998                 1.6536                 1.5380
 Frc consts  --     0.8748                 1.1338                 1.1042
 IR Inten    --     0.0122                75.1158                15.9647

                    25                     26                     27
                     A                      A                      A
 Frequencies --  1151.0412              1187.8598              1287.7041
 Red. masses --     6.3443                 1.1328                 1.3592
 Frc consts  --     4.9524                 0.9417                 1.3279
 IR Inten    --    64.1630                 2.4228                 0.0515

                    28                     29                     30
                     A                      A                      A
 Frequencies --  1376.3284              1381.2503              1449.5667
 Red. masses --    13.5577                 9.2529                 2.5381
 Frc consts  --    15.1315                10.4010                 3.1422
 IR Inten    --   120.8869                64.1671                 7.6897

                    31                     32                     33
                     A                      A                      A
 Frequencies --  1475.6303              1599.9226              1608.0705
 Red. masses --     2.5651                 7.0124                 6.4603
 Frc consts  --     3.2909                10.5759                 9.8427
 IR Inten    --    21.8093                16.0527                24.0720

                    34                     35                     36
                     A                      A                      A
 Frequencies --  1663.9835              2346.9491              3212.3855
 Red. masses --    12.1596                13.9499                 1.0907
 Frc consts  --    19.8366                45.2718                 6.6313
 IR Inten    --   255.8158               213.5349                 0.4212

                    37                     38                     39
                     A                      A                      A
 Frequencies --  3220.7758              3224.5768              3227.0817
 Red. masses --     1.0940                 1.0949                 1.0988
 Frc consts  --     6.6864                 6.7076                 6.7418
 IR Inten    --    25.8008                39.3516                11.4255

 - Thermochemistry -
 -------------------
 Temperature   298.150 Kelvin.  Pressure   1.00000 Atm.
 Atom     1 has atomic number  6 and mass  12.00000

 Molecular mass:   150.03035 amu.
 Principal axes and moments of inertia in atomic units:
                           1         2         3
     Eigenvalues --   799.945902402.059143202.00503
           X            0.99998   0.00593   0.00000
           Y           -0.00593   0.99998   0.00000
           Z            0.00000   0.00000   1.00000
 This molecule is an asymmetric top.
 Rotational symmetry number  1.
 Warning -- assumption of classical behavior for rotation
           may cause significant error
 Rotational temperatures (Kelvin)      0.10827     0.03606     0.02705
 Rotational constants (GHZ):           2.25608     0.75133     0.56363
 Zero-point vibrational energy     264111.1 (Joules/Mol)
                                   63.12407 (Kcal/Mol)
 Warning -- explicit consideration of  12 degrees of freedom as
           vibrations may cause significant error
 Vibrational temperatures:     77.46   192.38   197.46   251.66   366.41
          (Kelvin)            535.85   577.55   618.89   637.43   741.46
                              806.16   821.49   938.10   965.05  1071.44
                             1143.38  1173.23  1297.23  1334.71  1393.59
                             1448.54  1481.77  1552.10  1588.24  1656.09
                             1709.06  1852.72  1980.23  1987.31  2085.60
                             2123.10  2301.93  2313.65  2394.10  3376.73
                             4621.90  4633.97  4639.44  4643.04

 Zero-point correction=                           0.100595 (Hartree/Particle)
 Thermal correction to Energy=                    0.109301
 Thermal correction to Enthalpy=                  0.110245
 Thermal correction to Gibbs Free Energy=         0.065953
 Sum of electronic and zero-point Energies=           -545.295545
 Sum of electronic and thermal Energies=              -545.286839
 Sum of electronic and thermal Enthalpies=            -545.285895
 Sum of electronic and thermal Free Energies=         -545.330186

                     E (Thermal)             CV                S
                      KCal/Mol        Cal/Mol-Kelvin    Cal/Mol-Kelvin
 Total                   68.587             32.265             93.220
 Electronic               0.000              0.000              0.000
 Translational            0.889              2.981             40.927
 Rotational               0.889              2.981             30.199
 Vibrational             66.810             26.304             22.094
 Vibration     1          0.596              1.976              4.671
 Vibration     2          0.613              1.920              2.892
 Vibration     3          0.614              1.916              2.842
 Vibration     4          0.627              1.873              2.382
 Vibration     5          0.665              1.755              1.698
 Vibration     6          0.744              1.529              1.070
 Vibration     7          0.767              1.467              0.957
 Vibration     8          0.791              1.405              0.858
 Vibration     9          0.803              1.376              0.817
 Vibration    10          0.870              1.216              0.621
 Vibration    11          0.916              1.117              0.523
 Vibration    12          0.927              1.094              0.502

 Optimization completed.
    -- Stationary point found.
 Normal termination of Gaussian 09 at Sat May 26 18:57:54 2018.
