 Gaussian 09, Revision B.01,
 Gaussian 09:  EM64L-G09RevB.01 12-Aug-2010

 ----------------------------
 # opt freq rb3lyp/6-31G(d,p)
 ----------------------------

 -------------------------------
 3-NO2-Ph-N2-OTf-RB3LYP-6-31G_dp
 -------------------------------
 Symbolic Z-matrix:
 Charge =  0 Multiplicity = 1

 SCF Done:  E(RB3LYP) =  -1506.98025931     A.U. after   19 cycles
 SCF Done:  E(RB3LYP) =  -1506.98195815     A.U. after   13 cycles
 SCF Done:  E(RB3LYP) =  -1506.98212502     A.U. after   12 cycles
 SCF Done:  E(RB3LYP) =  -1506.97681322     A.U. after   15 cycles
 SCF Done:  E(RB3LYP) =  -1506.98215975     A.U. after   15 cycles
 SCF Done:  E(RB3LYP) =  -1506.98222784     A.U. after   12 cycles
 SCF Done:  E(RB3LYP) =  -1506.98231598     A.U. after   13 cycles
 SCF Done:  E(RB3LYP) =  -1506.98235747     A.U. after   12 cycles
 SCF Done:  E(RB3LYP) =  -1506.98238043     A.U. after   12 cycles
 SCF Done:  E(RB3LYP) =  -1506.98239200     A.U. after   11 cycles
 SCF Done:  E(RB3LYP) =  -1506.98400358     A.U. after   13 cycles
 SCF Done:  E(RB3LYP) =  -1506.98401755     A.U. after   10 cycles
 SCF Done:  E(RB3LYP) =  -1506.98406808     A.U. after   13 cycles
 SCF Done:  E(RB3LYP) =  -1506.98408366     A.U. after   12 cycles
 SCF Done:  E(RB3LYP) =  -1506.98409393     A.U. after   12 cycles
 SCF Done:  E(RB3LYP) =  -1506.98409668     A.U. after   10 cycles
 SCF Done:  E(RB3LYP) =  -1506.98409703     A.U. after    9 cycles
 SCF Done:  E(RB3LYP) =  -1506.98409728     A.U. after    8 cycles
 SCF Done:  E(RB3LYP) =  -1506.98409738     A.U. after    8 cycles
 Optimization completed.
    -- Stationary point found.
 Normal termination of Gaussian 09 at Thu Mar  3 19:06:11 2005.

 ----------------------------------------------------------------------
 #N Geom=AllCheck Guess=TCheck SCRF=Check GenChk RB3LYP/6-31G(d,p) Freq
 ----------------------------------------------------------------------

 3-NO2-Ph-N2-OTf-RB3LYP-6-31G_dp
 -------------------------------
 Redundant internal coordinates taken from checkpoint file:
 Ph-N2-OTf-N2-Ph.chk
 Charge =  0 Multiplicity = 1

                         Standard orientation:
 ---------------------------------------------------------------------
 Center     Atomic      Atomic             Coordinates (Angstroms)
 Number     Number       Type             X           Y           Z
 ---------------------------------------------------------------------
      1          6           0       -1.885028    2.003701   -0.056621
      2          6           0       -0.878294    1.090281   -0.352516
      3          6           0       -1.238993   -0.260058   -0.466856
      4          6           0       -2.544524   -0.729250   -0.292712
      5          6           0       -3.503522    0.222556    0.019473
      6          6           0       -3.199856    1.577968    0.140512
      7          1           0       -1.637953    3.054889    0.037252
      8          1           0        0.154627    1.380773   -0.482873
      9          1           0       -2.810324   -1.774770   -0.382109
     10          7           0       -0.268185   -1.202055   -0.798702
     11          7           0        0.367394   -2.038385   -1.187600
     12         16           0        2.560221   -0.674298    0.680248
     13          6           0        3.207511    0.775568   -0.292133
     14          8           0        1.169560   -0.226769    1.008817
     15          8           0        3.478689   -0.817744    1.806871
     16          8           0        2.550191   -1.780768   -0.322584
     17          9           0        2.341322    1.062660   -1.305061
     18          9           0        3.298966    1.867400    0.475561
     19          9           0        4.398747    0.521746   -0.832334
     20          1           0       -3.993323    2.272976    0.386544
     21          7           0       -4.896743   -0.229250    0.221118
     22          8           0       -5.727580    0.628884    0.499120
     23          8           0       -5.119472   -1.429617    0.092169
 ---------------------------------------------------------------------

 SCF Done:  E(RB3LYP) =  -1506.98409738     A.U. after    1 cycles

 The electronic state is 1-A.
 Alpha  occ. eigenvalues --  -89.09868 -24.73818 -24.73185 -24.73183 -19.23013
 Alpha  occ. eigenvalues --  -19.22962 -19.13177 -19.13107 -19.12304 -14.62195
 Alpha  occ. eigenvalues --  -14.57009 -14.54499 -10.43363 -10.35252 -10.31817
 Alpha  occ. eigenvalues --  -10.30189 -10.29020 -10.28734 -10.27761  -8.12136
 Alpha  occ. eigenvalues --   -6.08589  -6.08571  -6.08546  -1.31088  -1.27443
 Alpha  occ. eigenvalues --   -1.22464  -1.22341  -1.22045  -1.10832  -1.10304
 Alpha  occ. eigenvalues --   -0.98295  -0.97841  -0.97067  -0.91379  -0.86164
 Alpha  occ. eigenvalues --   -0.78909  -0.76479  -0.72318  -0.68659  -0.63464
 Alpha  occ. eigenvalues --   -0.63156  -0.60157  -0.58937  -0.58682  -0.58528
 Alpha  occ. eigenvalues --   -0.58221  -0.57673  -0.56923  -0.55247  -0.54800
 Alpha  occ. eigenvalues --   -0.52868  -0.52326  -0.51630  -0.47148  -0.46516
 Alpha  occ. eigenvalues --   -0.46026  -0.45887  -0.45054  -0.44557  -0.44220
 Alpha  occ. eigenvalues --   -0.43848  -0.42524  -0.42400  -0.40570  -0.35854
 Alpha  occ. eigenvalues --   -0.35471  -0.35095  -0.34528  -0.33997  -0.32699
 Alpha  occ. eigenvalues --   -0.32592  -0.29843  -0.29604  -0.28639  -0.25957
 Alpha virt. eigenvalues --   -0.15533  -0.13815  -0.12364  -0.06822  -0.03809
 Alpha virt. eigenvalues --    0.02158   0.08140   0.08476   0.09091   0.10598
 Alpha virt. eigenvalues --    0.11247   0.11285   0.11472   0.13097   0.13248

 Mulliken atomic charges:
              1
     1  C   -0.113804
     2  C    0.022066
     3  C    0.244902
     4  C   -0.042110
     5  C    0.235047
     6  C   -0.054257
     7  H    0.149357
     8  H    0.174357
     9  H    0.185477
    10  N    0.117793
    11  N   -0.022822
    12  S    1.149292
    13  C    0.569085
    14  O   -0.628091
    15  O   -0.497092
    16  O   -0.562037
    17  F   -0.275655
    18  F   -0.242506
    19  F   -0.231045
    20  H    0.170215
    21  N    0.399282
    22  O   -0.371902
    23  O   -0.375553
 Sum of Mulliken atomic charges =   0.00000

 Dipole moment (field-independent basis, Debye):
    X=             -7.5167    Y=              3.4987    Z=             -4.1962  Tot=              9.2924
 Quadrupole moment (field-independent basis, Debye-Ang):
   XX=           -143.4926   YY=           -103.8730   ZZ=           -114.1271
   XY=              1.8174   XZ=             -4.3251   YZ=              2.6817

  Exact polarizability: 225.456 -14.820 134.056   3.771  11.365  77.553
 Approx polarizability: 328.432 -39.062 268.091   1.386  40.356 140.801

                     1                      2                      3
                     A                      A                      A
 Frequencies --    19.8269                26.4456                32.3043
 Red. masses --     9.8252                13.6498                14.2438
 Frc consts  --     0.0023                 0.0056                 0.0088
 IR Inten    --     2.8475                 2.9262                 0.4111

                     4                      5                      6
                     A                      A                      A
 Frequencies --    53.0821                57.7605                83.8890
 Red. masses --    14.1290                15.6506                 7.2220
 Frc consts  --     0.0235                 0.0308                 0.0299
 IR Inten    --     1.5363                 1.9727                 4.2820

                     7                      8                      9
                     A                      A                      A
 Frequencies --   109.1811               133.5772               153.7170
 Red. masses --    14.2172                12.0487                 7.5848
 Frc consts  --     0.0999                 0.1267                 0.1056
 IR Inten    --     5.9784                 4.4887                11.1347

                    10                     11                     12
                     A                      A                      A
 Frequencies --   193.1415               202.8115               210.0333
 Red. masses --     9.2431                11.1408                11.3542
 Frc consts  --     0.2032                 0.2700                 0.2951
 IR Inten    --     2.6990                 0.9245                19.7012

                    13                     14                     15
                     A                      A                      A
 Frequencies --   235.9358               281.0729               302.0401
 Red. masses --     9.2535                10.0565                17.4827
 Frc consts  --     0.3035                 0.4681                 0.9397
 IR Inten    --    14.8006                 2.1840                 0.9073

                    16                     17                     18
                     A                      A                      A
 Frequencies --   332.7353               345.4869               374.4075
 Red. masses --    17.2038                17.2257                 6.0747
 Frc consts  --     1.1222                 1.2114                 0.5017
 IR Inten    --     0.6583                16.9007                 8.3788

                    19                     20                     21
                     A                      A                      A
 Frequencies --   391.3277               434.9666               462.5823
 Red. masses --     9.9705                 3.4736                10.5162
 Frc consts  --     0.8996                 0.3872                 1.3258
 IR Inten    --    10.9141                 0.6953                20.1558

                    22                     23                     24
                     A                      A                      A
 Frequencies --   481.3937               495.5887               503.0176
 Red. masses --     7.9710                15.1782                17.5987
 Frc consts  --     1.0883                 2.1964                 2.6236
 IR Inten    --     2.3130                14.6178                42.9685

                    25                     26                     27
                     A                      A                      A
 Frequencies --   545.6638               557.9298               560.3737
 Red. masses --     7.0290                17.7632                17.2756
 Frc consts  --     1.2331                 3.2579                 3.1962
 IR Inten    --    14.2620                 5.9128                17.3593

                    28                     29                     30
                     A                      A                      A
 Frequencies --   572.2582               614.0213               664.2067
 Red. masses --     6.8303                20.3711                 2.7626
 Frc consts  --     1.3179                 4.5251                 0.7181
 IR Inten    --     2.5736               156.4889                12.4536

                    31                     32                     33
                     A                      A                      A
 Frequencies --   676.5400               742.0629               750.2721
 Red. masses --     7.0978                 4.9252                18.3867
 Frc consts  --     1.9141                 1.5979                 6.0981
 IR Inten    --     3.2587                25.0688                 3.2355

                    34                     35                     36
                     A                      A                      A
 Frequencies --   800.8628               828.3207               914.9797
 Red. masses --    10.7169                 1.4223                 6.5591
 Frc consts  --     4.0498                 0.5750                 3.2353
 IR Inten    --    28.8332                14.6467                30.6909

                    37                     38                     39
                     A                      A                      A
 Frequencies --   931.7955               976.2607               983.0168
 Red. masses --     1.4709                 1.5020                 7.9035
 Frc consts  --     0.7525                 0.8434                 4.4998
 IR Inten    --    10.7656                16.9120               190.0693

                    40                     41                     42
                     A                      A                      A
 Frequencies --  1016.3444              1020.7735              1098.4456
 Red. masses --     6.2781                 1.3434                 1.6325
 Frc consts  --     3.8209                 0.8247                 1.1605
 IR Inten    --     5.5424                 0.9246                58.4843

                    43                     44                     45
                     A                      A                      A
 Frequencies --  1115.5682              1129.0872              1158.2625
 Red. masses --     1.6080                15.4728                10.7945
 Frc consts  --     1.1790                11.6218                 8.5323
 IR Inten    --    22.5431                93.4589               158.8064

                    46                     47                     48
                     A                      A                      A
 Frequencies --  1174.8547              1198.8998              1233.0238
 Red. masses --     6.4675                 1.1639                12.5156
 Frc consts  --     5.2596                 0.9857                11.2110
 IR Inten    --    11.5042                11.4469               109.5501

                    49                     50                     51
                     A                      A                      A
 Frequencies --  1257.1134              1295.0825              1307.6563
 Red. masses --    13.2920                18.1339                 1.3805
 Frc consts  --    12.3763                17.9199                 1.3909
 IR Inten    --   242.9536               468.3501                 7.6073

                    52                     53                     54
                     A                      A                      A
 Frequencies --  1377.9943              1398.1907              1472.6466
 Red. masses --     8.6659                14.3150                 2.8986
 Frc consts  --     9.6952                16.4883                 3.7037
 IR Inten    --     1.7569               276.6748                 3.8273

                    55                     56                     57
                     A                      A                      A
 Frequencies --  1501.6551              1621.2719              1629.2229
 Red. masses --     2.2489                 7.3790                 6.3217
 Frc consts  --     2.9879                11.4278                 9.8865
 IR Inten    --    15.0688                39.2876                 6.2936

                    58                     59                     60
                     A                      A                      A
 Frequencies --  1678.6883              2306.6343              3227.5619
 Red. masses --    11.2894                13.9584                 1.0912
 Frc consts  --    18.7439                43.7567                 6.6973
 IR Inten    --   164.9316               257.8700                 0.4429

                    61                     62                     63
                     A                      A                      A
 Frequencies --  3247.9924              3253.8709              3274.0174
 Red. masses --     1.0937                 1.0937                 1.0954
 Frc consts  --     6.7983                 6.8226                 6.9181
 IR Inten    --    10.2383                17.1678                32.4557

 - Thermochemistry -
 -------------------
 Temperature   298.150 Kelvin.  Pressure   1.00000 Atm.
 Atom     1 has atomic number  6 and mass  12.00000

 Molecular mass:   298.98238 amu.
 Principal axes and moments of inertia in atomic units:
                           1         2         3
     Eigenvalues --  2106.65685********************
           X            0.99997  -0.00754   0.00152
           Y            0.00753   0.99994   0.00783
           Z           -0.00158  -0.00781   0.99997
 This molecule is an asymmetric top.
 Rotational symmetry number  1.
 Warning -- assumption of classical behavior for rotation
           may cause significant error
 Rotational temperatures (Kelvin)      0.04111     0.00750     0.00699
 Rotational constants (GHZ):           0.85668     0.15633     0.14555
 Zero-point vibrational energy     341113.6 (Joules/Mol)
                                   81.52812 (Kcal/Mol)
 Warning -- explicit consideration of  29 degrees of freedom as
           vibrations may cause significant error
 Vibrational temperatures:     28.53    38.05    46.48    76.37    83.10
          (Kelvin)            120.70   157.09   192.19   221.16   277.89
                              291.80   302.19   339.46   404.40   434.57
                              478.73   497.08   538.69   563.03   625.82
                              665.55   692.62   713.04   723.73   785.09
                              802.74   806.25   823.35   883.44   955.64
                              973.39  1067.66  1079.47  1152.26  1191.77
                             1316.45  1340.64  1404.62  1414.34  1462.29
                             1468.66  1580.42  1605.05  1624.50  1666.48
                             1690.35  1724.95  1774.04  1808.70  1863.33
                             1881.42  1982.62  2011.68  2118.81  2160.54
                             2332.65  2344.09  2415.26  3318.73  4643.74
                             4673.13  4681.59  4710.57

 Zero-point correction=                           0.129923 (Hartree/Particle)
 Thermal correction to Energy=                    0.147448
 Thermal correction to Enthalpy=                  0.148393
 Thermal correction to Gibbs Free Energy=         0.081020
 Sum of electronic and zero-point Energies=          -1506.854174
 Sum of electronic and thermal Energies=             -1506.836649
 Sum of electronic and thermal Enthalpies=           -1506.835705
 Sum of electronic and thermal Free Energies=        -1506.903077

                     E (Thermal)             CV                S
                      KCal/Mol        Cal/Mol-Kelvin    Cal/Mol-Kelvin
 Total                   92.525             62.073            141.797
 Electronic               0.000              0.000              0.000
 Translational            0.889              2.981             42.983
 Rotational               0.889              2.981             34.066
 Vibrational             90.748             56.111             64.749
 Vibration     1          0.593              1.986              6.651
 Vibration     2          0.593              1.985              6.080
 Vibration     3          0.594              1.983              5.683
 Vibration     4          0.596              1.976              4.699
 Vibration     5          0.596              1.974              4.532
 Vibration     6          0.601              1.960              3.798
 Vibration     7          0.606              1.942              3.283
 Vibration     8          0.613              1.920              2.894
 Vibration     9          0.619              1.899              2.626
 Vibration    10          0.635              1.849              2.197
 Vibration    11          0.639              1.836              2.107
 Vibration    12          0.642              1.825              2.043
 Vibration    13          0.655              1.786              1.833
 Vibration    14          0.681              1.709              1.527
 Vibration    15          0.694              1.670              1.406
 Vibration    16          0.715              1.610              1.247
 Vibration    17          0.724              1.584              1.187
 Vibration    18          0.746              1.525              1.062
 Vibration    19          0.759              1.489              0.995
 Vibration    20          0.796              1.394              0.843
 Vibration    21          0.820              1.333              0.759
 Vibration    22          0.838              1.291              0.706
 Vibration    23          0.851              1.260              0.669
 Vibration    24          0.858              1.243              0.651
 Vibration    25          0.901              1.149              0.553
 Vibration    26          0.913              1.122              0.528
 Vibration    27          0.916              1.117              0.523
 Vibration    28          0.928              1.091              0.500
 Vibration    29          0.973              1.002              0.426

 Normal termination of Gaussian 09 at Thu Mar  3 19:13:09 2005.
