 Gaussian 09, Revision B.01,
 Gaussian 09:  EM64L-G09RevB.01 12-Aug-2010

 ----------------------------
 # opt freq rb3lyp/6-31G(d,p)
 ----------------------------

 ---------------------------
 4-Br-Ph-N2+-RB3LYP-6-31G_dp
 ---------------------------
 Symbolic Z-matrix:
 Charge =  1 Multiplicity = 1

 SCF Done:  E(RB3LYP) =  -2911.95219856     A.U. after   19 cycles
 SCF Done:  E(RB3LYP) =  -2911.95398567     A.U. after   18 cycles
 SCF Done:  E(RB3LYP) =  -2911.95413771     A.U. after   18 cycles
 SCF Done:  E(RB3LYP) =  -2911.95415025     A.U. after   15 cycles
 SCF Done:  E(RB3LYP) =  -2911.95415145     A.U. after   14 cycles
 Optimization completed.
    -- Stationary point found.
 Normal termination of Gaussian 09 at Thu Apr  7 02:22:59 2005.

 ----------------------------------------------------------------------
 #N Geom=AllCheck Guess=TCheck SCRF=Check GenChk RB3LYP/6-31G(d,p) Freq
 ----------------------------------------------------------------------

 4-Br-Ph-N2+-RB3LYP-6-31G_dp
 ---------------------------
 Redundant internal coordinates taken from checkpoint file:
 /home/ubuntu/g09/Gau-26952.chk
 Charge =  1 Multiplicity = 1

                         Standard orientation:
 ---------------------------------------------------------------------
 Center     Atomic      Atomic             Coordinates (Angstroms)
 Number     Number       Type             X           Y           Z
 ---------------------------------------------------------------------
      1          6           0        1.451634    1.243663    0.000179
      2          6           0        2.122516   -0.000026    0.000080
      3          6           0        1.451518   -1.243714    0.000233
      4          6           0        0.070525   -1.228137    0.000105
      5          6           0       -0.618373    0.000037    0.000089
      6          6           0        0.070627    1.228195    0.000152
      7          1           0        2.006352    2.175424    0.000173
      8          1           0        2.006246   -2.175413    0.000351
      9          1           0       -0.483284   -2.159601    0.000067
     10          1           0       -0.483036    2.159734    0.000274
     11          7           0        3.490295   -0.000032    0.000124
     12          7           0        4.607945   -0.000015   -0.000506
     13         35           0       -2.486418    0.000002   -0.000092
 ---------------------------------------------------------------------

 SCF Done:  E(RB3LYP) =  -2911.95415145     A.U. after    1 cycles

 The electronic state is 1-A.
 Alpha  occ. eigenvalues -- -483.07926 -62.04070 -56.56231 -56.55802 -56.55765
 Alpha  occ. eigenvalues --  -14.72870 -14.68998 -10.47669 -10.44787 -10.41982
 Alpha  occ. eigenvalues --  -10.41981 -10.39645 -10.39645  -8.75225  -6.70671
 Alpha  occ. eigenvalues --   -6.69401  -6.69201  -2.82244  -2.81913  -2.81758
 Alpha  occ. eigenvalues --   -2.80742  -2.80736  -1.37380  -1.11296  -1.04254
 Alpha  occ. eigenvalues --   -0.96567  -0.96254  -0.86578  -0.83106  -0.77210
 Alpha  occ. eigenvalues --   -0.72757  -0.72479  -0.69588  -0.67223  -0.65512
 Alpha  occ. eigenvalues --   -0.63590  -0.63456  -0.58222  -0.55755  -0.55545
 Alpha  occ. eigenvalues --   -0.50438  -0.46308  -0.44598  -0.42726
 Alpha virt. eigenvalues --   -0.29334  -0.27709  -0.20585  -0.17752  -0.15121
 Alpha virt. eigenvalues --   -0.08038  -0.04662  -0.03504  -0.00894   0.00263
 Alpha virt. eigenvalues --    0.02319   0.05942   0.07749   0.09171   0.13926

 Mulliken atomic charges:
              1
     1  C   -0.022870
     2  C    0.241965
     3  C   -0.022849
     4  C   -0.081898
     5  C    0.073419
     6  C   -0.081902
     7  H    0.185752
     8  H    0.185743
     9  H    0.183911
    10  H    0.183906
    11  N    0.116299
    12  N   -0.027317
    13  Br   0.065841
 Sum of Mulliken atomic charges =   1.00000

 Dipole moment (field-independent basis, Debye):
    X=              7.2852    Y=              0.0000    Z=              0.0005  Tot=              7.2852
 Quadrupole moment (field-independent basis, Debye-Ang):
   XX=            -24.6953   YY=            -47.9450   ZZ=            -62.0435
   XY=              0.0003   XZ=              0.0011   YZ=              0.0000

  Exact polarizability: 190.012   0.001  78.041  -0.006   0.000  35.165
 Approx polarizability: 384.332   0.001 135.020  -0.019   0.000  55.764

                     1                      2                      3
                     A                      A                      A
 Frequencies --    78.1040               147.8937               227.4895
 Red. masses --    10.1968                10.9767                 7.2237
 Frc consts  --     0.0366                 0.1415                 0.2203
 IR Inten    --     0.3180                 1.6236                 0.1087

                     4                      5                      6
                     A                      A                      A
 Frequencies --   272.8956               278.3972               403.0269
 Red. masses --     5.5696                18.1163                 2.9437
 Frc consts  --     0.2444                 0.8273                 0.2817
 IR Inten    --     0.0008                14.7995                 0.0000

                     7                      8                      9
                     A                      A                      A
 Frequencies --   456.9779               546.0889               549.7899
 Red. masses --     4.0649                 5.8710                 7.8149
 Frc consts  --     0.5001                 1.0315                 1.3918
 IR Inten    --     5.5780                14.9220                 0.0192

                    10                     11                     12
                     A                      A                      A
 Frequencies --   559.8652               643.7549               703.9107
 Red. masses --     7.8039                 7.6255                 4.0172
 Frc consts  --     1.4412                 1.8619                 1.1728
 IR Inten    --     2.4478                 0.7950                 0.1039

                    13                     14                     15
                     A                      A                      A
 Frequencies --   789.3806               828.7061               851.7647
 Red. masses --     6.7578                 1.2501                 1.4630
 Frc consts  --     2.4810                 0.5058                 0.6253
 IR Inten    --    10.7952                 0.0002                52.5985

                    16                     17                     18
                     A                      A                      A
 Frequencies --   998.4472              1002.7952              1020.6465
 Red. masses --     1.3161                 1.3485                 3.4317
 Frc consts  --     0.7730                 0.7990                 2.1062
 IR Inten    --     0.1297                 0.0000                 6.9849

                    19                     20                     21
                     A                      A                      A
 Frequencies --  1089.2829              1148.9127              1159.2899
 Red. masses --     3.9000                 1.3274                 2.7977
 Frc consts  --     2.7265                 1.0323                 2.2154
 IR Inten    --   161.9876                 4.7783               187.5454

                    22                     23                     24
                     A                      A                      A
 Frequencies --  1225.5274              1331.2314              1363.0741
 Red. masses --     1.3938                 1.3623                 5.3844
 Frc consts  --     1.2334                 1.4224                 5.8942
 IR Inten    --     5.7820                 0.3505                 6.2358

                    25                     26                     27
                     A                      A                      A
 Frequencies --  1464.3911              1494.4545              1571.6005
 Red. masses --     3.3933                 1.9566                 6.5296
 Frc consts  --     4.2874                 2.5746                 9.5021
 IR Inten    --    32.9715                 1.8225                 1.7812

                    28                     29                     30
                     A                      A                      A
 Frequencies --  1612.5539              2331.4047              3227.2567
 Red. masses --     5.2760                13.9315                 1.0917
 Frc consts  --     8.0831                44.6151                 6.6990
 IR Inten    --   435.3023               563.3907                 6.8895

                    31                     32                     33
                     A                      A                      A
 Frequencies --  3228.4556              3239.4789              3240.5917
 Red. masses --     1.0909                 1.0965                 1.0978
 Frc consts  --     6.6992                 6.7796                 6.7924
 IR Inten    --     1.3434                20.4684                 0.5751

 - Thermochemistry -
 -------------------
 Temperature   298.150 Kelvin.  Pressure   1.00000 Atm.
 Atom     1 has atomic number  6 and mass  12.00000

 Molecular mass:   182.95578 amu.
 Principal axes and moments of inertia in atomic units:
                           1         2         3
     Eigenvalues --   329.480533822.009064151.48954
           X            1.00000   0.00000   0.00000
           Y            0.00000   1.00000   0.00000
           Z            0.00000   0.00000   1.00000
 This molecule is an asymmetric top.
 Rotational symmetry number  1.
 Rotational temperatures (Kelvin)      0.26288     0.02266     0.02086
 Rotational constants (GHZ):           5.47754     0.47220     0.43472
 Zero-point vibrational energy     233794.8 (Joules/Mol)
                                   55.87830 (Kcal/Mol)
 Warning -- explicit consideration of  10 degrees of freedom as
           vibrations may cause significant error
 Vibrational temperatures:    112.37   212.79   327.31   392.64   400.55
          (Kelvin)            579.87   657.49   785.70   791.02   805.52
                              926.22  1012.77  1135.74  1192.32  1225.50
                             1436.54  1442.80  1468.48  1567.23  1653.03
                             1667.96  1763.26  1915.34  1961.16  2106.93
                             2150.18  2261.18  2320.10  3354.37  4643.30
                             4645.02  4660.88  4662.48

 Zero-point correction=                           0.089048 (Hartree/Particle)
 Thermal correction to Energy=                    0.096547
 Thermal correction to Enthalpy=                  0.097491
 Thermal correction to Gibbs Free Energy=         0.055501
 Sum of electronic and zero-point Energies=          -2911.865104
 Sum of electronic and thermal Energies=             -2911.857605
 Sum of electronic and thermal Enthalpies=           -2911.856661
 Sum of electronic and thermal Free Energies=        -2911.898650

                     E (Thermal)             CV                S
                      KCal/Mol        Cal/Mol-Kelvin    Cal/Mol-Kelvin
 Total                   60.584             27.473             88.374
 Electronic               0.000              0.000              0.000
 Translational            0.889              2.981             41.519
 Rotational               0.889              2.981             30.037
 Vibrational             58.807             21.511             16.819
 Vibration     1          0.599              1.964              3.938
 Vibration     2          0.617              1.905              2.699
 Vibration     3          0.651              1.799              1.899
 Vibration     4          0.676              1.723              1.578
 Vibration     5          0.679              1.713              1.544
 Vibration     6          0.768              1.464              0.952
 Vibration     7          0.815              1.345              0.775
 Vibration     8          0.901              1.148              0.552
 Vibration     9          0.905              1.140              0.545
 Vibration    10          0.915              1.118              0.524

 Optimization completed.
    -- Stationary point found.
 Normal termination of Gaussian 09 at Thu Apr  7 02:24:05 2005.
