 Gaussian 09, Revision B.01,
 Gaussian 09:  EM64L-G09RevB.01 12-Aug-2010

 ----------------------------
 # opt freq rb3lyp/6-31G(d,p)
 ----------------------------

 ------------------------------
 4-Br-Ph-N2-OTf-RB3LYP-6-31G_dp
 ------------------------------
 Symbolic Z-matrix:
 Charge =  0 Multiplicity = 1

 SCF Done:  E(RB3LYP) =  -3873.53678923     A.U. after   28 cycles
 SCF Done:  E(RB3LYP) =  -3873.57027128     A.U. after   16 cycles
 SCF Done:  E(RB3LYP) =  -3873.58125097     A.U. after   18 cycles
 SCF Done:  E(RB3LYP) =  -3873.58794470     A.U. after   13 cycles
 SCF Done:  E(RB3LYP) =  -3873.59221695     A.U. after   13 cycles
 SCF Done:  E(RB3LYP) =  -3873.59314127     A.U. after   13 cycles
 SCF Done:  E(RB3LYP) =  -3873.59334266     A.U. after   13 cycles
 SCF Done:  E(RB3LYP) =  -3873.59362559     A.U. after   14 cycles
 SCF Done:  E(RB3LYP) =  -3873.59369756     A.U. after   16 cycles
 SCF Done:  E(RB3LYP) =  -3873.59399187     A.U. after   13 cycles
 SCF Done:  E(RB3LYP) =  -3873.59515128     A.U. after   11 cycles
 SCF Done:  E(RB3LYP) =  -3873.59515493     A.U. after   12 cycles
 SCF Done:  E(RB3LYP) =  -3873.59515496     A.U. after    9 cycles
 SCF Done:  E(RB3LYP) =  -3873.59515509     A.U. after    7 cycles
 SCF Done:  E(RB3LYP) =  -3873.59515532     A.U. after    8 cycles
 SCF Done:  E(RB3LYP) =  -3873.59515553     A.U. after    8 cycles
 SCF Done:  E(RB3LYP) =  -3873.59515562     A.U. after    8 cycles
 SCF Done:  E(RB3LYP) =  -3873.59515562     A.U. after    8 cycles
 SCF Done:  E(RB3LYP) =  -3873.59515562     A.U. after    8 cycles
 Optimization completed.
    -- Stationary point found.
 Normal termination of Gaussian 09 at Thu Mar  3 19:31:46 2005.

 ----------------------------------------------------------------------
 #N Geom=AllCheck Guess=TCheck SCRF=Check GenChk RB3LYP/6-31G(d,p) Freq
 ----------------------------------------------------------------------

 4-Br-Ph-N2-OTf-RB3LYP-6-31G_dp
 ------------------------------
 Redundant internal coordinates taken from checkpoint file:
 Ph-N2-OTf-N2-Ph.chk
 Charge =  0 Multiplicity = 1

                         Standard orientation:
 ---------------------------------------------------------------------
 Center     Atomic      Atomic             Coordinates (Angstroms)
 Number     Number       Type             X           Y           Z
 ---------------------------------------------------------------------
      1          6           0        1.042207   -0.230855    0.013863
      2          6           0        0.926622    1.165737   -0.074277
      3          6           0        2.032226    2.033627   -0.095003
      4          6           0        3.299535    1.477455   -0.043593
      5          6           0        3.435466    0.084462    0.040703
      6          6           0        2.324076   -0.763271    0.073675
      7          1           0        0.136184   -0.835506    0.064063
      8          1           0        1.891504    3.106722   -0.158020
      9          1           0        4.177986    2.110508   -0.064633
     10          1           0        2.458525   -1.835800    0.146740
     11          7           0       -0.333723    1.733007   -0.143184
     12          7           0       -1.394782    2.072888   -0.282753
     13         16           0       -2.810496   -0.717731   -0.474546
     14          8           0       -2.488834    0.428764   -1.396584
     15          8           0       -3.275818   -1.932311   -1.147211
     16          8           0       -1.770406   -0.883534    0.579797
     17          6           0       -4.270876   -0.080315    0.484280
     18          9           0       -5.302710    0.167514   -0.329301
     19          9           0       -3.941067    1.066978    1.110663
     20          9           0       -4.655189   -0.967946    1.408426
     21         35           0        5.172540   -0.660765    0.119776
 ---------------------------------------------------------------------

 SCF Done:  E(RB3LYP) =  -3873.59515562     A.U. after    1 cycles

 The electronic state is 1-A.
 Alpha  occ. eigenvalues -- -482.96364 -89.08601 -61.92528 -56.44675 -56.44247
 Alpha  occ. eigenvalues --  -56.44239 -24.71683 -24.71427 -24.71395 -19.12204
 Alpha  occ. eigenvalues --  -19.11439 -19.10946 -14.55470 -14.53900 -10.41844
 Alpha  occ. eigenvalues --  -10.33595 -10.31918 -10.28800 -10.27247 -10.27095
 Alpha  occ. eigenvalues --  -10.26608  -8.63678  -8.10898  -6.59104  -6.57817
 Alpha  occ. eigenvalues --   -6.57721  -6.07359  -6.07325  -6.07299  -2.70673
 Alpha  occ. eigenvalues --   -2.70321  -2.70246  -2.69218  -2.69217  -1.29371
 Alpha  occ. eigenvalues --   -1.20851  -1.20632  -1.20617  -1.09454  -0.96822
 Alpha  occ. eigenvalues --   -0.96415  -0.95811  -0.90691  -0.83504  -0.83074
 Alpha  occ. eigenvalues --   -0.73661  -0.70778  -0.69769  -0.63970  -0.61627
 Alpha  occ. eigenvalues --   -0.57585  -0.57099  -0.56995  -0.56725  -0.55491
 Alpha  occ. eigenvalues --   -0.53757  -0.52042  -0.51270  -0.50648  -0.49905
 Alpha  occ. eigenvalues --   -0.45325  -0.44852  -0.44664  -0.43846  -0.43045
 Alpha  occ. eigenvalues --   -0.42891  -0.42645  -0.41994  -0.40780  -0.40671
 Alpha  occ. eigenvalues --   -0.38674  -0.37740  -0.33578  -0.33155  -0.31926
 Alpha  occ. eigenvalues --   -0.31428  -0.30739  -0.28489  -0.28325  -0.27394
 Alpha  occ. eigenvalues --   -0.24380
 Alpha virt. eigenvalues --   -0.14605  -0.11297  -0.07792  -0.04202  -0.04008
 Alpha virt. eigenvalues --    0.04903   0.08588   0.09730   0.11148   0.12002
 Alpha virt. eigenvalues --    0.12464   0.12695   0.13005   0.13031   0.17363

 Mulliken atomic charges:
              1
     1  C    0.001826
     2  C    0.224224
     3  C   -0.047477
     4  C   -0.093683
     5  C    0.074096
     6  C   -0.107686
     7  H    0.222619
     8  H    0.148642
     9  H    0.144691
    10  H    0.155714
    11  N    0.103480
    12  N   -0.036384
    13  S    1.149515
    14  O   -0.591928
    15  O   -0.509489
    16  O   -0.623200
    17  C    0.572252
    18  F   -0.240163
    19  F   -0.261490
    20  F   -0.240863
    21  Br  -0.044696
 Sum of Mulliken atomic charges =   0.00000

 Dipole moment (field-independent basis, Debye):
    X=             11.0559    Y=              5.8802    Z=              1.6084  Tot=             12.6253
 Quadrupole moment (field-independent basis, Debye-Ang):
   XX=           -121.0274   YY=           -104.1552   ZZ=           -118.7527
   XY=             -4.1935   XZ=             -6.4907   YZ=             -2.0752

  Exact polarizability: 254.383  -2.376 134.214  12.654   1.056  71.187
 Approx polarizability: 367.757 -20.017 249.498  30.061   4.149 123.533

                     1                      2                      3
                     A                      A                      A
 Frequencies --     9.2447                24.0715                38.7758
 Red. masses --    14.2964                14.1743                 6.0054
 Frc consts  --     0.0007                 0.0048                 0.0053
 IR Inten    --     1.3969                 2.1501                 0.1055

                     4                      5                      6
                     A                      A                      A
 Frequencies --    41.6405                55.1664                84.2736
 Red. masses --    12.6595                11.0064                11.8407
 Frc consts  --     0.0129                 0.0197                 0.0495
 IR Inten    --     2.7132                 2.0267                 0.5380

                     7                      8                      9
                     A                      A                      A
 Frequencies --    94.6592               148.7029               196.2796
 Red. masses --    12.4002                12.3636                16.9450
 Frc consts  --     0.0655                 0.1611                 0.3846
 IR Inten    --     3.6652                24.4603                 6.5648

                    10                     11                     12
                     A                      A                      A
 Frequencies --   208.0264               216.5326               240.9620
 Red. masses --    16.9238                10.4304                 7.8516
 Frc consts  --     0.4315                 0.2881                 0.2686
 IR Inten    --     4.9176                50.8853                18.0122

                    13                     14                     15
                     A                      A                      A
 Frequencies --   274.0586               284.4818               305.8936
 Red. masses --    10.6419                 9.0984                17.5490
 Frc consts  --     0.4709                 0.4338                 0.9675
 IR Inten    --    51.6221                12.6427                 1.1889

                    16                     17                     18
                     A                      A                      A
 Frequencies --   332.7622               346.8905               416.9837
 Red. masses --    16.9863                16.9217                 3.0569
 Frc consts  --     1.1082                 1.1997                 0.3132
 IR Inten    --     0.1476                24.7551                 0.8676

                    19                     20                     21
                     A                      A                      A
 Frequencies --   451.6139               490.3791               494.5311
 Red. masses --     5.8411                 6.9580                17.3260
 Frc consts  --     0.7019                 0.9858                 2.4965
 IR Inten    --    13.9429                51.6782                14.2630

                    22                     23                     24
                     A                      A                      A
 Frequencies --   508.1146               547.9018               551.4028
 Red. masses --    13.3927                 5.6266                 7.7182
 Frc consts  --     2.0372                 0.9952                 1.3826
 IR Inten    --    16.5346                 7.6556                 8.6666

                    25                     26                     27
                     A                      A                      A
 Frequencies --   561.3148               564.0575               617.5775
 Red. masses --    14.1822                15.3516                20.5433
 Frc consts  --     2.6327                 2.8777                 4.6164
 IR Inten    --     7.1182                 8.9072               184.2233

                    28                     29                     30
                     A                      A                      A
 Frequencies --   643.7877               714.0807               757.0226
 Red. masses --     7.2824                 4.1280                18.2623
 Frc consts  --     1.7783                 1.2402                 6.1663
 IR Inten    --     0.6107                 1.1164                 1.2370

                    31                     32                     33
                     A                      A                      A
 Frequencies --   789.1433               837.5299               886.4988
 Red. masses --     6.7441                 1.3337                 1.3372
 Frc consts  --     2.4745                 0.5512                 0.6191
 IR Inten    --    29.2390                18.6494                24.3228

                    34                     35                     36
                     A                      A                      A
 Frequencies --   975.1543               984.9698              1025.1554
 Red. masses --    15.7176                 1.3344                 4.1268
 Frc consts  --     8.8061                 0.7628                 2.5553
 IR Inten    --   383.5355                 1.5987                11.7945

                    37                     38                     39
                     A                      A                      A
 Frequencies --  1046.1957              1085.5948              1128.8297
 Red. masses --     1.3241                 2.9936                 3.0604
 Frc consts  --     0.8539                 2.0786                 2.2977
 IR Inten    --     7.0772                50.4126               124.3974

                    40                     41                     42
                     A                      A                      A
 Frequencies --  1145.3748              1154.1542              1204.7679
 Red. masses --     2.6444                 2.4367                12.0885
 Frc consts  --     2.0440                 1.9124                10.3378
 IR Inten    --    86.2700                81.2465               114.2619

                    43                     44                     45
                     A                      A                      A
 Frequencies --  1217.5204              1229.0872              1244.2620
 Red. masses --     1.3174                13.8420                13.2489
 Frc consts  --     1.1506                12.3201                12.0852
 IR Inten    --    25.4913               125.9623               259.2278

                    46                     47                     48
                     A                      A                      A
 Frequencies --  1284.3549              1335.1951              1352.8033
 Red. masses --    15.5173                 1.3485                 7.5075
 Frc consts  --    15.0812                 1.4164                 8.0950
 IR Inten    --   422.5067                 2.5225                15.6629

                    49                     50                     51
                     A                      A                      A
 Frequencies --  1450.9507              1504.0701              1595.6523
 Red. masses --     2.9105                 2.0091                 6.9188
 Frc consts  --     3.6101                 2.6779                10.3790
 IR Inten    --    13.8962                34.9463                 9.7647

                    52                     53                     54
                     A                      A                      A
 Frequencies --  1619.7026              2283.0048              3134.4206
 Red. masses --     5.3888                13.9523                 1.0993
 Frc consts  --     8.3295                42.8459                 6.3630
 IR Inten    --   190.8996               215.4324               225.9405

                    55                     56                     57
                     A                      A                      A
 Frequencies --  3224.1362              3233.3599              3240.2767
 Red. masses --     1.0908                 1.0931                 1.0959
 Frc consts  --     6.6805                 6.7333                 6.7793
 IR Inten    --     0.2204                 1.9892                 0.2988

 - Thermochemistry -
 -------------------
 Temperature   298.150 Kelvin.  Pressure   1.00000 Atm.
 Atom     1 has atomic number  6 and mass  12.00000

 Molecular mass:   331.90781 amu.
 Principal axes and moments of inertia in atomic units:
                           1         2         3
     Eigenvalues --  1855.44731********************
           X            0.99995   0.00961   0.00084
           Y           -0.00961   0.99995  -0.00013
           Z           -0.00084   0.00012   1.00000
 This molecule is an asymmetric top.
 Rotational symmetry number  1.
 Warning -- assumption of classical behavior for rotation
           may cause significant error
 Rotational temperatures (Kelvin)      0.04668     0.00511     0.00486
 Rotational constants (GHZ):           0.97267     0.10655     0.10117
 Zero-point vibrational energy     307639.8 (Joules/Mol)
                                   73.52767 (Kcal/Mol)
 Warning -- explicit consideration of  27 degrees of freedom as
           vibrations may cause significant error
 Vibrational temperatures:     13.30    34.63    55.79    59.91    79.37
          (Kelvin)            121.25   136.19   213.95   282.40   299.30
                              311.54   346.69   394.31   409.31   440.11
                              478.77   499.10   599.95   649.77   705.55
                              711.52   731.06   788.31   793.34   807.61
                              811.55   888.56   926.27  1027.40  1089.19
                             1135.40  1205.02  1275.47  1403.03  1417.15
                             1474.97  1505.24  1561.93  1624.13  1647.94
                             1660.57  1733.39  1751.74  1768.38  1790.21
                             1847.90  1921.05  1946.38  2087.59  2164.02
                             2295.78  2330.39  3284.73  4509.73  4638.81
                             4652.08  4662.03

 Zero-point correction=                           0.117174 (Hartree/Particle)
 Thermal correction to Energy=                    0.133725
 Thermal correction to Enthalpy=                  0.134669
 Thermal correction to Gibbs Free Energy=         0.067667
 Sum of electronic and zero-point Energies=          -3873.477982
 Sum of electronic and thermal Energies=             -3873.461431
 Sum of electronic and thermal Enthalpies=           -3873.460487
 Sum of electronic and thermal Free Energies=        -3873.527489

                     E (Thermal)             CV                S
                      KCal/Mol        Cal/Mol-Kelvin    Cal/Mol-Kelvin
 Total                   83.913             57.483            141.018
 Electronic               0.000              0.000              0.000
 Translational            0.889              2.981             43.294
 Rotational               0.889              2.981             34.682
 Vibrational             82.136             51.522             63.041
 Vibration     1          0.593              1.987              8.167
 Vibration     2          0.593              1.985              6.266
 Vibration     3          0.594              1.981              5.321
 Vibration     4          0.594              1.981              5.179
 Vibration     5          0.596              1.976              4.623
 Vibration     6          0.601              1.960              3.789
 Vibration     7          0.603              1.953              3.561
 Vibration     8          0.618              1.904              2.689
 Vibration     9          0.636              1.845              2.168
 Vibration    10          0.641              1.828              2.061
 Vibration    11          0.645              1.816              1.988
 Vibration    12          0.658              1.778              1.796
 Vibration    13          0.676              1.721              1.570
 Vibration    14          0.683              1.702              1.507
 Vibration    15          0.696              1.663              1.384
 Vibration    16          0.715              1.610              1.247
 Vibration    17          0.725              1.582              1.180
 Vibration    18          0.780              1.433              0.902
 Vibration    19          0.810              1.357              0.791
 Vibration    20          0.846              1.271              0.683
 Vibration    21          0.850              1.262              0.672
 Vibration    22          0.863              1.232              0.638
 Vibration    23          0.903              1.144              0.549
 Vibration    24          0.907              1.137              0.541
 Vibration    25          0.917              1.115              0.521
 Vibration    26          0.920              1.109              0.516
 Vibration    27          0.977              0.995              0.420

 Normal termination of Gaussian 09 at Thu Mar  3 19:37:18 2005.
