 Gaussian 09, Revision B.01,
 Gaussian 09:  EM64L-G09RevB.01 12-Aug-2010

 ----------------------------------------------------------------------
 #p Temperature=298.15 opt=(maxcycles=1024) SCF=(maxcycles=1024) freq R
 B3LYP/aug-cc-pVDZ
 ----------------------------------------------------------------------

 --------------------------------------
 4-Br-Ph-N2+-RB3LYP-aug-cc-pVDZ-Singlet
 --------------------------------------
 Symbolic Z-matrix:
 Charge =  1 Multiplicity = 1

 SCF Done:  E(RB3LYP) =  -2914.43113530     A.U. after   17 cycles
 SCF Done:  E(RB3LYP) =  -2914.43282053     A.U. after   17 cycles
 SCF Done:  E(RB3LYP) =  -2914.43293324     A.U. after   16 cycles
 SCF Done:  E(RB3LYP) =  -2914.43294145     A.U. after   23 cycles
 SCF Done:  E(RB3LYP) =  -2914.43294216     A.U. after   10 cycles
 Optimization completed.
    -- Stationary point found.
 Normal termination of Gaussian 09 at Sun May 27 05:08:07 2018.

 ----------------------------------------------------------------------
 #P Geom=AllCheck Guess=TCheck SCRF=Check GenChk RB3LYP/Aug-CC-pVDZ Fre
 q
 ----------------------------------------------------------------------

 4-Br-Ph-N2+-RB3LYP-aug-cc-pVDZ-Singlet
 --------------------------------------
 Redundant internal coordinates taken from checkpoint file:
 /home/ubuntu/g09/Gau-20062.chk
 Charge =  1 Multiplicity = 1

                         Standard orientation:
 ---------------------------------------------------------------------
 Center     Atomic      Atomic             Coordinates (Angstroms)
 Number     Number       Type             X           Y           Z
 ---------------------------------------------------------------------
      1          6           0       -1.456152    1.244811   -0.000329
      2          6           0       -2.124962   -0.000032   -0.000192
      3          6           0       -1.456051   -1.244874   -0.000364
      4          6           0       -0.071896   -1.230460   -0.000213
      5          6           0        0.616681    0.000024   -0.000137
      6          6           0       -0.071987    1.230496   -0.000244
      7          1           0       -2.013454    2.180295   -0.000380
      8          1           0       -2.013349   -2.180308   -0.000516
      9          1           0        0.481270   -2.167734   -0.000197
     10          1           0        0.481055    2.167833   -0.000350
     11          7           0       -3.499666   -0.000043   -0.000152
     12          7           0       -4.615891    0.000023    0.000841
     13         35           0        2.493131    0.000008    0.000157
 ---------------------------------------------------------------------

 SCF Done:  E(RB3LYP) =  -2914.43294216     A.U. after    2 cycles

 The electronic state is 1-A.
 Alpha  occ. eigenvalues -- -483.04921 -62.70004 -56.51727 -56.51381 -56.51323
 Alpha  occ. eigenvalues --  -14.72425 -14.68672 -10.47667 -10.44599 -10.41869
 Alpha  occ. eigenvalues --  -10.41868 -10.39630 -10.39628  -8.88071  -6.71116
 Alpha  occ. eigenvalues --   -6.69861  -6.69668  -2.82153  -2.81824  -2.81677
 Alpha  occ. eigenvalues --   -2.80674  -2.80669  -1.37751  -1.11495  -1.04539
 Alpha  occ. eigenvalues --   -0.96922  -0.96869  -0.87176  -0.83370  -0.77533
 Alpha  occ. eigenvalues --   -0.72959  -0.72718  -0.69929  -0.67489  -0.65932
 Alpha  occ. eigenvalues --   -0.63851  -0.63655  -0.58609  -0.56034  -0.55791
 Alpha  occ. eigenvalues --   -0.50780  -0.46761  -0.45068  -0.43221
 Alpha virt. eigenvalues --   -0.29735  -0.27985  -0.21751  -0.18686  -0.16843
 Alpha virt. eigenvalues --   -0.14264  -0.11763  -0.11371  -0.10363  -0.09169
 Alpha virt. eigenvalues --   -0.08340  -0.08246  -0.07189  -0.05403  -0.05086

 Mulliken atomic charges:
              1
     1  C    0.801835
     2  C    0.764166
     3  C    0.802184
     4  C    0.604485
     5  C    0.298455
     6  C    0.604619
     7  H   -0.760800
     8  H   -0.760839
     9  H   -0.708355
    10  H   -0.708341
    11  N    0.435062
    12  N   -0.674030
    13  Br   0.301556
 Sum of Mulliken atomic charges =   1.00000

 Dipole moment (field-independent basis, Debye):
    X=             -7.3656    Y=              0.0000    Z=             -0.0008  Tot=              7.3656
 Quadrupole moment (field-independent basis, Debye-Ang):
   XX=            -25.0224   YY=            -48.4400   ZZ=            -62.8248
   XY=             -0.0001   XZ=              0.0013   YZ=              0.0000

  Exact polarizability: 200.264  -0.003  89.392  -0.006   0.005  54.892
 Approx polarizability: 389.171  -0.002 154.199  -0.027   0.000  87.766

                     1                      2                      3
                     A                      A                      A
 Frequencies --    76.6364               144.7899               224.5973
 Red. masses --    10.1566                10.9965                 7.1906
 Frc consts  --     0.0351                 0.1358                 0.2137
 IR Inten    --     0.3411                 1.6051                 0.1526

                     4                      5                      6
                     A                      A                      A
 Frequencies --   269.8075               277.5880               398.4816
 Red. masses --     5.6603                18.1751                 2.8836
 Frc consts  --     0.2428                 0.8251                 0.2698
 IR Inten    --     0.0002                14.9395                 0.0000

                     7                      8                      9
                     A                      A                      A
 Frequencies --   454.5016               536.2899               541.6801
 Red. masses --     4.0535                 5.5475                 7.6593
 Frc consts  --     0.4933                 0.9400                 1.3241
 IR Inten    --     7.4025                13.9191                 0.0053

                    10                     11                     12
                     A                      A                      A
 Frequencies --   558.6103               640.4552               708.5969
 Red. masses --     7.8190                 7.6350                 3.7749
 Frc consts  --     1.4375                 1.8452                 1.1167
 IR Inten    --     1.4931                 0.6117                 0.0925

                    13                     14                     15
                     A                      A                      A
 Frequencies --   786.5229               816.8562               841.8958
 Red. masses --     6.8032                 1.2496                 1.4786
 Frc consts  --     2.4796                 0.4913                 0.6175
 IR Inten    --    12.8218                 0.0001                52.5956

                    16                     17                     18
                     A                      A                      A
 Frequencies --   985.0033               993.9260              1014.1703
 Red. masses --     1.3523                 1.3629                 3.3644
 Frc consts  --     0.7731                 0.7933                 2.0388
 IR Inten    --     0.0025                 0.0000                 5.9036

                    19                     20                     21
                     A                      A                      A
 Frequencies --  1084.8650              1140.3083              1142.8233
 Red. masses --     3.8967                 1.3052                 2.8512
 Frc consts  --     2.7021                 0.9999                 2.1940
 IR Inten    --   158.7242                 4.8447               187.8147

                    22                     23                     24
                     A                      A                      A
 Frequencies --  1213.1827              1314.0517              1356.7215
 Red. masses --     1.3551                 1.3151                 6.1078
 Frc consts  --     1.1751                 1.3379                 6.6240
 IR Inten    --     6.0666                 0.0599                 7.3214

                    25                     26                     27
                     A                      A                      A
 Frequencies --  1449.3839              1474.6406              1566.8357
 Red. masses --     3.4790                 1.9995                 6.9262
 Frc consts  --     4.3060                 2.5617                10.0183
 IR Inten    --    31.2511                 3.4723                 1.4806

                    28                     29                     30
                     A                      A                      A
 Frequencies --  1597.7797              2317.3935              3213.7791
 Red. masses --     5.4682                13.9376                 1.0919
 Frc consts  --     8.2248                44.0999                 6.6448
 IR Inten    --   426.4771               528.1975                 6.4296

                    31                     32                     33
                     A                      A                      A
 Frequencies --  3214.3673              3225.9399              3227.2428
 Red. masses --     1.0911                 1.0970                 1.0984
 Frc consts  --     6.6423                 6.7261                 6.7400
 IR Inten    --     2.0947                22.9641                 0.6206

 - Thermochemistry -
 -------------------
 Temperature   298.150 Kelvin.  Pressure   1.00000 Atm.
 Atom     1 has atomic number  6 and mass  12.00000

 Molecular mass:   182.95578 amu.
 Principal axes and moments of inertia in atomic units:
                           1         2         3
     Eigenvalues --   330.619773839.984794170.60443
           X            1.00000   0.00000   0.00000
           Y            0.00000   1.00000   0.00000
           Z            0.00000   0.00000   1.00000
 This molecule is an asymmetric top.
 Rotational symmetry number  1.
 Rotational temperatures (Kelvin)      0.26197     0.02256     0.02077
 Rotational constants (GHZ):           5.45866     0.46999     0.43273
 Zero-point vibrational energy     232133.7 (Joules/Mol)
                                   55.48129 (Kcal/Mol)
 Warning -- explicit consideration of  10 degrees of freedom as
           vibrations may cause significant error
 Vibrational temperatures:    110.26   208.32   323.15   388.19   399.39
          (Kelvin)            573.33   653.93   771.60   779.36   803.71
                              921.47  1019.51  1131.63  1175.27  1211.30
                             1417.20  1430.04  1459.16  1560.88  1640.65
                             1644.27  1745.50  1890.62  1952.02  2085.34
                             2121.68  2254.32  2298.85  3334.21  4623.91
                             4624.75  4641.40  4643.28

 Zero-point correction=                           0.088415 (Hartree/Particle)
 Thermal correction to Energy=                    0.095966
 Thermal correction to Enthalpy=                  0.096911
 Thermal correction to Gibbs Free Energy=         0.054805
 Sum of electronic and zero-point Energies=          -2914.344527
 Sum of electronic and thermal Energies=             -2914.336976
 Sum of electronic and thermal Enthalpies=           -2914.336032
 Sum of electronic and thermal Free Energies=        -2914.378137

                     E (Thermal)             CV                S
                      KCal/Mol        Cal/Mol-Kelvin    Cal/Mol-Kelvin
 Total                   60.220             27.669             88.619
 Electronic               0.000              0.000              0.000
 Translational            0.889              2.981             41.519
 Rotational               0.889              2.981             30.050
 Vibrational             58.442             21.707             17.050
 Vibration     1          0.599              1.965              3.975
 Vibration     2          0.616              1.908              2.740
 Vibration     3          0.649              1.804              1.922
 Vibration     4          0.674              1.729              1.597
 Vibration     5          0.679              1.715              1.548
 Vibration     6          0.765              1.473              0.968
 Vibration     7          0.813              1.351              0.782
 Vibration     8          0.891              1.170              0.573
 Vibration     9          0.897              1.158              0.562
 Vibration    10          0.914              1.121              0.527

 Optimization completed.
    -- Stationary point found.
 Normal termination of Gaussian 09 at Sun May 27 05:16:32 2018.
