 Gaussian 09, Revision B.01,
 Gaussian 09:  EM64L-G09RevB.01 12-Aug-2010

 ----------------------------
 # opt freq rb3lyp/6-31G(d,p)
 ----------------------------

 --------------------------------
 4-CH3O-Ph-N2-OTf-RB3LYP-6-31G_dp
 --------------------------------
 Symbolic Z-matrix:
 Charge =  0 Multiplicity = 1

 SCF Done:  E(RB3LYP) =  -1417.02497957     A.U. after   19 cycles
 SCF Done:  E(RB3LYP) =  -1416.13740771     A.U. after   18 cycles
 SCF Done:  E(RB3LYP) =  -1416.97278083     A.U. after   18 cycles
 SCF Done:  E(RB3LYP) =  -1417.02503981     A.U. after   17 cycles
 SCF Done:  E(RB3LYP) =  -1417.02673706     A.U. after   15 cycles
 SCF Done:  E(RB3LYP) =  -1417.02707234     A.U. after   13 cycles
 SCF Done:  E(RB3LYP) =  -1417.02713796     A.U. after   12 cycles
 SCF Done:  E(RB3LYP) =  -1417.02718981     A.U. after   12 cycles
 SCF Done:  E(RB3LYP) =  -1417.02720635     A.U. after   11 cycles
 SCF Done:  E(RB3LYP) =  -1417.02722492     A.U. after   11 cycles
 SCF Done:  E(RB3LYP) =  -1417.02725723     A.U. after   12 cycles
 SCF Done:  E(RB3LYP) =  -1417.02725872     A.U. after    9 cycles
 SCF Done:  E(RB3LYP) =  -1417.02725991     A.U. after    9 cycles
 SCF Done:  E(RB3LYP) =  -1417.02726135     A.U. after   11 cycles
 SCF Done:  E(RB3LYP) =  -1417.02726246     A.U. after   11 cycles
 SCF Done:  E(RB3LYP) =  -1417.02726331     A.U. after   11 cycles
 SCF Done:  E(RB3LYP) =  -1417.02726414     A.U. after   11 cycles
 SCF Done:  E(RB3LYP) =  -1417.02726453     A.U. after    9 cycles
 SCF Done:  E(RB3LYP) =  -1417.02726455     A.U. after    8 cycles
 Optimization completed.
    -- Stationary point found.
 Normal termination of Gaussian 09 at Thu Mar  3 19:53:34 2005.

 ----------------------------------------------------------------------
 #N Geom=AllCheck Guess=TCheck SCRF=Check GenChk RB3LYP/6-31G(d,p) Freq
 ----------------------------------------------------------------------

 4-CH3O-Ph-N2-OTf-RB3LYP-6-31G_dp
 --------------------------------
 Redundant internal coordinates taken from checkpoint file:
 Ph-N2-OTf-N2-Ph.chk
 Charge =  0 Multiplicity = 1

                         Standard orientation:
 ---------------------------------------------------------------------
 Center     Atomic      Atomic             Coordinates (Angstroms)
 Number     Number       Type             X           Y           Z
 ---------------------------------------------------------------------
      1          6           0       -2.152967   -0.646406   -0.530585
      2          6           0       -1.131395    0.274503   -0.664607
      3          6           0       -1.350597    1.578518   -0.184064
      4          6           0       -2.559669    1.982311    0.424439
      5          6           0       -3.563001    1.050673    0.545671
      6          6           0       -3.368192   -0.272248    0.077286
      7          1           0       -1.987825   -1.657003   -0.879921
      8          1           0       -0.168635    0.037798   -1.108849
      9          1           0       -2.682443    2.994779    0.791663
     10          1           0       -4.510314    1.300767    1.008305
     11          7           0       -0.336809    2.486468   -0.288553
     12          7           0        0.494641    3.220324   -0.398801
     13         16           0        2.297525    0.436660    0.139114
     14          6           0        2.314918   -1.425082    0.050703
     15          8           0        1.802570    0.815525   -1.223597
     16          8           0        3.684773    0.801714    0.444179
     17          8           0        1.281408    0.717291    1.189780
     18          9           0        1.081512   -1.895675   -0.280963
     19          9           0        3.173865   -1.861853   -0.877929
     20          9           0        2.647902   -1.967676    1.228246
     21          8           0       -4.405973   -1.095476    0.261566
     22          6           0       -4.299776   -2.468181   -0.140119
     23          1           0       -5.251513   -2.923057    0.130293
     24          1           0       -3.485753   -2.968711    0.393084
     25          1           0       -4.146376   -2.548799   -1.220882
 ---------------------------------------------------------------------

 SCF Done:  E(RB3LYP) =  -1417.02726455     A.U. after    1 cycles

 The electronic state is 1-A.
 Alpha  occ. eigenvalues --  -89.06583 -24.70922 -24.70392 -24.70362 -19.24810
 Alpha  occ. eigenvalues --  -19.09307 -19.08961 -19.08728 -14.57011 -14.53228
 Alpha  occ. eigenvalues --  -10.40455 -10.32903 -10.32207 -10.28933 -10.28048
 Alpha  occ. eigenvalues --  -10.26591 -10.25675 -10.25216  -8.08824  -6.05279
 Alpha  occ. eigenvalues --   -6.05261  -6.05236  -1.28231  -1.21646  -1.19546
 Alpha  occ. eigenvalues --   -1.19529  -1.13523  -1.07293  -0.96152  -0.94212
 Alpha  occ. eigenvalues --   -0.93525  -0.88311  -0.82556  -0.79051  -0.72130
 Alpha  occ. eigenvalues --   -0.69409  -0.68965  -0.63196  -0.60171  -0.59109
 Alpha  occ. eigenvalues --   -0.58128  -0.57093  -0.56096  -0.55841  -0.54020
 Alpha  occ. eigenvalues --   -0.52447  -0.52399  -0.51495  -0.50465  -0.48980
 Alpha  occ. eigenvalues --   -0.47238  -0.46918  -0.44298  -0.43875  -0.43677
 Alpha  occ. eigenvalues --   -0.42816  -0.41744  -0.41152  -0.40898  -0.39707
 Alpha  occ. eigenvalues --   -0.39608  -0.39038  -0.38630  -0.37784  -0.32441
 Alpha  occ. eigenvalues --   -0.30104  -0.29359  -0.29156  -0.26437  -0.26203
 Alpha  occ. eigenvalues --   -0.25542  -0.22055
 Alpha virt. eigenvalues --   -0.13657  -0.11867  -0.06593  -0.02198   0.04006
 Alpha virt. eigenvalues --    0.06332   0.07425   0.10367   0.11109   0.11481
 Alpha virt. eigenvalues --    0.12049   0.12683   0.13413   0.14032   0.14187

 Mulliken atomic charges:
              1
     1  C   -0.152617
     2  C    0.008793
     3  C    0.235240
     4  C   -0.043324
     5  C   -0.120209
     6  C    0.395418
     7  H    0.138094
     8  H    0.197060
     9  H    0.144217
    10  H    0.136835
    11  N    0.143694
    12  N   -0.044637
    13  S    1.155483
    14  C    0.558688
    15  O   -0.655682
    16  O   -0.526009
    17  O   -0.640219
    18  F   -0.281970
    19  F   -0.244176
    20  F   -0.244909
    21  O   -0.490578
    22  C   -0.105086
    23  H    0.151533
    24  H    0.146639
    25  H    0.137722
 Sum of Mulliken atomic charges =   0.00000

 Dipole moment (field-independent basis, Debye):
    X=            -14.5575    Y=              0.3446    Z=             -1.3774  Tot=             14.6266
 Quadrupole moment (field-independent basis, Debye-Ang):
   XX=           -108.7398   YY=            -84.7909   ZZ=           -111.0872
   XY=             -1.2702   XZ=             -1.2556   YZ=              2.0829

  Exact polarizability: 175.663  37.815 152.384 -13.793   6.122  77.844
 Approx polarizability: 291.230  90.451 260.438 -33.691   7.977 133.586

                     1                      2                      3
                     A                      A                      A
 Frequencies --    13.6336                23.3941                40.3912
 Red. masses --     9.0303                 8.0861                 8.2643
 Frc consts  --     0.0010                 0.0026                 0.0079
 IR Inten    --     0.7971                 1.0756                 0.1425

                     4                      5                      6
                     A                      A                      A
 Frequencies --    50.8299                55.1618                92.6265
 Red. masses --    11.2911                 7.3525                 4.6634
 Frc consts  --     0.0172                 0.0132                 0.0236
 IR Inten    --     2.6081                 4.0148                 1.2993

                     7                      8                      9
                     A                      A                      A
 Frequencies --   101.7115               108.7651               131.0318
 Red. masses --     8.7483                10.1095                 9.8531
 Frc consts  --     0.0533                 0.0705                 0.0997
 IR Inten    --     1.1650                 4.0705                25.8413

                    10                     11                     12
                     A                      A                      A
 Frequencies --   144.8634               198.5274               203.5563
 Red. masses --     4.6188                17.0244                14.4459
 Frc consts  --     0.0571                 0.3953                 0.3527
 IR Inten    --     7.9959                 1.2222                 1.4529

                    13                     14                     15
                     A                      A                      A
 Frequencies --   211.5944               251.5819               274.6232
 Red. masses --     1.2704                 3.2462                 3.8039
 Frc consts  --     0.0335                 0.1211                 0.1690
 IR Inten    --     0.7470                 1.6488                 0.4238

                    16                     17                     18
                     A                      A                      A
 Frequencies --   300.1406               333.1607               340.1243
 Red. masses --    17.8107                17.4447                17.5741
 Frc consts  --     0.9453                 1.1408                 1.1978
 IR Inten    --     0.3644                 0.2412                 4.8057

                    19                     20                     21
                     A                      A                      A
 Frequencies --   381.6493               418.9603               488.1105
 Red. masses --     8.0295                 3.2939                 5.9609
 Frc consts  --     0.6891                 0.3406                 0.8367
 IR Inten    --     3.0127                 1.3427                 3.6447

                    22                     23                     24
                     A                      A                      A
 Frequencies --   494.5291               503.0044               507.0879
 Red. masses --    17.6621                 5.6119                16.9538
 Frc consts  --     2.5449                 0.8366                 2.5685
 IR Inten    --    15.0843                 9.6278                40.9890

                    25                     26                     27
                     A                      A                      A
 Frequencies --   533.9075               547.6171               556.1288
 Red. masses --     4.4702                 4.7213                17.8543
 Frc consts  --     0.7508                 0.8342                 3.2534
 IR Inten    --     7.7470                12.7488                 3.2435

                    28                     29                     30
                     A                      A                      A
 Frequencies --   563.7594               621.4762               649.2233
 Red. masses --    16.9390                20.2350                 7.1722
 Frc consts  --     3.1720                 4.6047                 1.7811
 IR Inten    --    23.7995               122.1640                 5.0223

                    31                     32                     33
                     A                      A                      A
 Frequencies --   703.4380               707.6968               749.0790
 Red. masses --     4.0630                 4.9579                18.3499
 Frc consts  --     1.1845                 1.4630                 6.0665
 IR Inten    --     4.0863                10.7107                 2.4032

                    34                     35                     36
                     A                      A                      A
 Frequencies --   821.1956               836.0629               857.6171
 Red. masses --     1.2862                 5.9714                 1.6306
 Frc consts  --     0.5110                 2.4593                 0.7066
 IR Inten    --     6.0226                 6.1713                60.9128

                    37                     38                     39
                     A                      A                      A
 Frequencies --   967.3885               982.5849              1015.0109
 Red. masses --     1.2728                13.5857                 2.7110
 Frc consts  --     0.7018                 7.7281                 1.6456
 IR Inten    --     0.1085               134.0973                 5.8051

                    40                     41                     42
                     A                      A                      A
 Frequencies --  1042.0608              1044.3336              1140.2074
 Red. masses --     1.2543                 7.0911                 1.5508
 Frc consts  --     0.8025                 4.5566                 1.1879
 IR Inten    --    19.7106                80.1329                25.5691

                    43                     44                     45
                     A                      A                      A
 Frequencies --  1154.3984              1169.9752              1172.0051
 Red. masses --     2.1415                 7.5379                 1.2747
 Frc consts  --     1.6815                 6.0793                 1.0316
 IR Inten    --    72.0603               320.2140                 0.9640

                    46                     47                     48
                     A                      A                      A
 Frequencies --  1182.1101              1209.7176              1223.1536
 Red. masses --     5.9777                 1.3621                 1.6827
 Frc consts  --     4.9215                 1.1744                 1.4832
 IR Inten    --   194.5901                 1.8136                15.5655

                    49                     50                     51
                     A                      A                      A
 Frequencies --  1233.3139              1239.9658              1285.1381
 Red. masses --    13.6981                12.7943                16.9736
 Frc consts  --    12.2761                11.5901                16.5168
 IR Inten    --    97.7204               301.2796               443.1643

                    52                     53                     54
                     A                      A                      A
 Frequencies --  1333.6225              1338.5623              1381.3924
 Red. masses --     1.5396                 2.6302                 6.3822
 Frc consts  --     1.6133                 2.7766                 7.1755
 IR Inten    --    61.0941               267.8635                47.4317

                    55                     56                     57
                     A                      A                      A
 Frequencies --  1483.2237              1491.5616              1507.7263
 Red. masses --     1.2585                 3.1252                 1.0458
 Frc consts  --     1.6312                 4.0964                 1.4007
 IR Inten    --    28.9746                18.5762                 9.8758

                    58                     59                     60
                     A                      A                      A
 Frequencies --  1511.8191              1536.0301              1591.9315
 Red. masses --     1.1132                 2.3997                 6.9154
 Frc consts  --     1.4991                 3.3358                10.3257
 IR Inten    --    27.0653                64.4180                17.5535

                    61                     62                     63
                     A                      A                      A
 Frequencies --  1647.1276              2360.1797              3047.9170
 Red. masses --     5.4038                13.9286                 1.0329
 Frc consts  --     8.6378                45.7139                 5.6535
 IR Inten    --   474.1889               371.1341                31.2427

                    64                     65                     66
                     A                      A                      A
 Frequencies --  3125.7939              3180.3688              3189.3713
 Red. masses --     1.1081                 1.1032                 1.0974
 Frc consts  --     6.3789                 6.5746                 6.5772
 IR Inten    --    17.0447                12.0654               144.8924

                    67                     68                     69
                     A                      A                      A
 Frequencies --  3223.5766              3237.5738              3247.1426
 Red. masses --     1.0897                 1.0968                 1.0916
 Frc consts  --     6.6719                 6.7734                 6.7811
 IR Inten    --     0.0094                 0.3113                 3.1762

 - Thermochemistry -
 -------------------
 Temperature   298.150 Kelvin.  Pressure   1.00000 Atm.
 Atom     1 has atomic number  6 and mass  12.00000

 Molecular mass:   284.00786 amu.
 Principal axes and moments of inertia in atomic units:
                           1         2         3
     Eigenvalues --  3017.558577428.267309588.18395
           X            0.99951   0.03135  -0.00073
           Y           -0.03134   0.99945   0.01129
           Z            0.00108  -0.01126   0.99994
 This molecule is an asymmetric top.
 Rotational symmetry number  1.
 Warning -- assumption of classical behavior for rotation
           may cause significant error
 Rotational temperatures (Kelvin)      0.02870     0.01166     0.00903
 Rotational constants (GHZ):           0.59808     0.24296     0.18823
 Zero-point vibrational energy     420562.4 (Joules/Mol)
                                  100.51683 (Kcal/Mol)
 Warning -- explicit consideration of  28 degrees of freedom as
           vibrations may cause significant error
 Vibrational temperatures:     19.62    33.66    58.11    73.13    79.37
          (Kelvin)            133.27   146.34   156.49   188.53   208.43
                              285.64   292.87   304.44   361.97   395.12
                              431.83   479.34   489.36   549.11   602.79
                              702.28   711.52   723.71   729.59   768.17
                              787.90   800.14   811.12   894.16   934.09
                             1012.09  1018.22  1077.76  1181.52  1202.91
                             1233.92  1391.85  1413.72  1460.37  1499.29
                             1502.56  1640.50  1660.92  1683.33  1686.25
                             1700.79  1740.51  1759.84  1774.46  1784.03
                             1849.02  1918.78  1925.89  1987.51  2134.03
                             2146.02  2169.28  2175.17  2210.00  2290.43
                             2369.85  3395.77  4385.27  4497.31  4575.84
                             4588.79  4638.00  4658.14  4671.91

 Zero-point correction=                           0.160184 (Hartree/Particle)
 Thermal correction to Energy=                    0.178120
 Thermal correction to Enthalpy=                  0.179064
 Thermal correction to Gibbs Free Energy=         0.110509
 Sum of electronic and zero-point Energies=          -1416.867081
 Sum of electronic and thermal Energies=             -1416.849145
 Sum of electronic and thermal Enthalpies=           -1416.848201
 Sum of electronic and thermal Free Energies=        -1416.916755

                     E (Thermal)             CV                S
                      KCal/Mol        Cal/Mol-Kelvin    Cal/Mol-Kelvin
 Total                  111.772             62.712            144.285
 Electronic               0.000              0.000              0.000
 Translational            0.889              2.981             42.830
 Rotational               0.889              2.981             33.730
 Vibrational            109.994             56.751             67.726
 Vibration     1          0.593              1.986              7.395
 Vibration     2          0.593              1.985              6.323
 Vibration     3          0.594              1.981              5.240
 Vibration     4          0.595              1.977              4.785
 Vibration     5          0.596              1.976              4.623
 Vibration     6          0.602              1.954              3.604
 Vibration     7          0.604              1.948              3.421
 Vibration     8          0.606              1.942              3.291
 Vibration     9          0.612              1.922              2.931
 Vibration    10          0.616              1.908              2.739
 Vibration    11          0.637              1.842              2.147
 Vibration    12          0.639              1.835              2.101
 Vibration    13          0.643              1.823              2.030
 Vibration    14          0.664              1.760              1.719
 Vibration    15          0.677              1.720              1.567
 Vibration    16          0.693              1.673              1.416
 Vibration    17          0.715              1.609              1.245
 Vibration    18          0.720              1.595              1.212
 Vibration    19          0.751              1.509              1.033
 Vibration    20          0.782              1.429              0.896
 Vibration    21          0.844              1.276              0.689
 Vibration    22          0.850              1.262              0.672
 Vibration    23          0.858              1.243              0.651
 Vibration    24          0.862              1.234              0.641
 Vibration    25          0.889              1.175              0.579
 Vibration    26          0.903              1.145              0.549
 Vibration    27          0.912              1.126              0.532
 Vibration    28          0.920              1.110              0.516

 Optimization completed.
    -- Stationary point found.
 Normal termination of Gaussian 09 at Thu Mar  3 20:01:01 2005.
