 Gaussian 09, Revision B.01,
 Gaussian 09:  EM64L-G09RevB.01 12-Aug-2010

 ----------------------------
 # opt freq rb3lyp/6-31G(d,p)
 ----------------------------

 -----------------------------
 4-CH3O-Ph-N2+-RB3LYP-6-31G_dp
 -----------------------------
 Symbolic Z-matrix:
 Charge =  1 Multiplicity = 1

 SCF Done:  E(RB3LYP) =  -455.395257086     A.U. after   18 cycles
 SCF Done:  E(RB3LYP) =  -455.396364530     A.U. after   13 cycles
 SCF Done:  E(RB3LYP) =  -455.396515717     A.U. after   17 cycles
 SCF Done:  E(RB3LYP) =  -455.396534717     A.U. after   10 cycles
 SCF Done:  E(RB3LYP) =  -455.396537106     A.U. after   18 cycles
 SCF Done:  E(RB3LYP) =  -455.396537331     A.U. after    7 cycles
 Optimization completed.
    -- Stationary point found.
 Normal termination of Gaussian 09 at Thu Apr  7 02:25:46 2005.

 ----------------------------------------------------------------------
 #N Geom=AllCheck Guess=TCheck SCRF=Check GenChk RB3LYP/6-31G(d,p) Freq
 ----------------------------------------------------------------------

 4-CH3O-Ph-N2+-RB3LYP-6-31G_dp
 -----------------------------
 Redundant internal coordinates taken from checkpoint file:
 /home/ubuntu/g09/Gau-27664.chk
 Charge =  1 Multiplicity = 1

                         Standard orientation:
 ---------------------------------------------------------------------
 Center     Atomic      Atomic             Coordinates (Angstroms)
 Number     Number       Type             X           Y           Z
 ---------------------------------------------------------------------
      1          6           0       -0.685210   -1.033022   -0.000648
      2          6           0        0.682733   -1.185406   -0.000484
      3          6           0        1.494401   -0.025620   -0.000053
      4          6           0        0.949149    1.286596   -0.000021
      5          6           0       -0.414557    1.418076   -0.000202
      6          6           0       -1.252572    0.268460   -0.000399
      7          1           0       -1.315493   -1.912777   -0.001004
      8          1           0        1.135163   -2.171013   -0.000601
      9          1           0        1.600554    2.153336    0.000265
     10          1           0       -0.883564    2.395260   -0.000082
     11          7           0        2.842843   -0.174899    0.000256
     12          7           0        3.957260   -0.294071    0.000575
     13          8           0       -2.547623    0.518964   -0.000422
     14          6           0       -3.516341   -0.553705    0.000973
     15          1           0       -4.484898   -0.058490    0.003334
     16          1           0       -3.406685   -1.164372    0.901014
     17          1           0       -3.410435   -1.163157   -0.900352
 ---------------------------------------------------------------------

 SCF Done:  E(RB3LYP) =  -455.396537331     A.U. after    1 cycles

 The electronic state is 1-A.
 Alpha  occ. eigenvalues --  -19.36539 -14.70768 -14.66539 -10.45576 -10.45459
 Alpha  occ. eigenvalues --  -10.40822 -10.40288 -10.38957 -10.38129 -10.37626
 Alpha  occ. eigenvalues --   -1.35090  -1.25366  -1.09441  -1.00965  -0.95340
 Alpha  occ. eigenvalues --   -0.90649  -0.84336  -0.81232  -0.75795  -0.71238
 Alpha  occ. eigenvalues --   -0.70742  -0.70532  -0.67142  -0.65108  -0.63474
 Alpha  occ. eigenvalues --   -0.63327  -0.62295  -0.59774  -0.58129  -0.56188
 Alpha  occ. eigenvalues --   -0.54621  -0.51147  -0.49838  -0.45148  -0.41657
 Alpha virt. eigenvalues --   -0.26975  -0.25876  -0.19098  -0.15101  -0.08268
 Alpha virt. eigenvalues --   -0.04223  -0.03259  -0.02334  -0.01963   0.00784
 Alpha virt. eigenvalues --    0.01511   0.02843   0.03056   0.04553   0.05721

 Mulliken atomic charges:
              1
     1  C   -0.125900
     2  C   -0.036216
     3  C    0.243175
     4  C   -0.033462
     5  C   -0.107618
     6  C    0.407583
     7  H    0.160611
     8  H    0.177511
     9  H    0.177314
    10  H    0.176223
    11  N    0.097526
    12  N   -0.051603
    13  O   -0.461593
    14  C   -0.121671
    15  H    0.184896
    16  H    0.156549
    17  H    0.156674
 Sum of Mulliken atomic charges =   1.00000

 Dipole moment (field-independent basis, Debye):
    X=              1.1871    Y=             -1.2351    Z=              0.0016  Tot=              1.7131
 Quadrupole moment (field-independent basis, Debye-Ang):
   XX=            -20.9662   YY=            -43.1092   ZZ=            -56.0817
   XY=              4.2812   XZ=             -0.0051   YZ=              0.0024

  Exact polarizability: 175.525  -2.157  78.569   0.013   0.006  36.947
 Approx polarizability: 350.211 -18.393 128.845   0.049   0.007  55.161

                     1                      2                      3
                     A                      A                      A
 Frequencies --    77.6797               150.4835               153.5513
 Red. masses --     4.5253                 4.2434                 6.8298
 Frc consts  --     0.0161                 0.0566                 0.0949
 IR Inten    --     0.4234                 5.3365                 0.8153

                     4                      5                      6
                     A                      A                      A
 Frequencies --   189.0020               250.9825               268.6477
 Red. masses --     1.1174                 3.4993                 4.9284
 Frc consts  --     0.0235                 0.1299                 0.2096
 IR Inten    --     0.0605                 3.6013                 1.7516

                     7                      8                      9
                     A                      A                      A
 Frequencies --   384.3090               409.0251               487.1021
 Red. masses --     7.9081                 3.1646                 3.6126
 Frc consts  --     0.6881                 0.3119                 0.5050
 IR Inten    --     3.6059                 0.2085                 2.2533

                    10                     11                     12
                     A                      A                      A
 Frequencies --   504.3421               540.0085               553.9763
 Red. masses --     5.2747                 5.7436                 6.5737
 Frc consts  --     0.7905                 0.9868                 1.1886
 IR Inten    --    23.0720                13.4954                 1.5475

                    13                     14                     15
                     A                      A                      A
 Frequencies --   647.3971               701.7276               706.3131
 Red. masses --     7.3223                 3.5896                 5.4794
 Frc consts  --     1.8082                 1.0414                 1.6106
 IR Inten    --     2.5955                 0.1117                 5.7175

                    16                     17                     18
                     A                      A                      A
 Frequencies --   809.2771               829.4035               856.2985
 Red. masses --     1.2512                 6.2363                 1.7626
 Frc consts  --     0.4828                 2.5276                 0.7615
 IR Inten    --     0.3670                 4.1739                71.4858

                    19                     20                     21
                     A                      A                      A
 Frequencies --   976.5223               985.1244              1003.6650
 Red. masses --     1.2786                 1.2870                 2.7240
 Frc consts  --     0.7184                 0.7359                 1.6167
 IR Inten    --     0.0460                 0.0348                 2.8096

                    22                     23                     24
                     A                      A                      A
 Frequencies --  1018.5678              1152.2562              1165.6674
 Red. masses --     8.0336                 1.2720                 1.2645
 Frc consts  --     4.9107                 0.9951                 1.0123
 IR Inten    --    83.1030                10.6411                 0.9064

                    25                     26                     27
                     A                      A                      A
 Frequencies --  1173.5082              1205.2332              1233.6468
 Red. masses --     1.7760                 1.3309                 1.9351
 Frc consts  --     1.4410                 1.1391                 1.7352
 IR Inten    --   300.6834                 0.4532                13.7311

                    28                     29                     30
                     A                      A                      A
 Frequencies --  1333.0243              1362.4480              1382.9188
 Red. masses --     1.3524                 3.4831                 3.7363
 Frc consts  --     1.4159                 3.8094                 4.2100
 IR Inten    --     2.0307               201.9632               198.7177

                    31                     32                     33
                     A                      A                      A
 Frequencies --  1480.0639              1498.5888              1508.2629
 Red. masses --     1.2624                 1.1894                 1.0452
 Frc consts  --     1.6293                 1.5738                 1.4009
 IR Inten    --    21.4108                40.0632                15.1876

                    34                     35                     36
                     A                      A                      A
 Frequencies --  1514.3608              1544.3089              1571.3344
 Red. masses --     2.9468                 2.9566                 5.4776
 Frc consts  --     3.9816                 4.1544                 7.9685
 IR Inten    --    10.6350                71.4540                35.2132

                    37                     38                     39
                     A                      A                      A
 Frequencies --  1647.2350              2312.2523              3061.3053
 Red. masses --     5.3538                13.9163                 1.0321
 Frc consts  --     8.5590                43.8373                 5.6987
 IR Inten    --   586.5830               593.7015                15.5926

                    40                     41                     42
                     A                      A                      A
 Frequencies --  3147.8659              3201.0305              3225.8735
 Red. masses --     1.1095                 1.1045                 1.0923
 Frc consts  --     6.4773                 6.6677                 6.6971
 IR Inten    --     8.7732                 1.2707                 3.5970

                    43                     44                     45
                     A                      A                      A
 Frequencies --  3227.3954              3239.5850              3249.6827
 Red. masses --     1.0909                 1.0975                 1.0939
 Frc consts  --     6.6950                 6.7862                 6.8064
 IR Inten    --     1.9758                 8.2411                 3.5348

 - Thermochemistry -
 -------------------
 Temperature   298.150 Kelvin.  Pressure   1.00000 Atm.
 Atom     1 has atomic number  6 and mass  12.00000

 Molecular mass:   135.05584 amu.
 Principal axes and moments of inertia in atomic units:
                           1         2         3
     Eigenvalues --   382.963882519.079572890.36465
           X            0.99987   0.01614  -0.00002
           Y           -0.01614   0.99987   0.00001
           Z            0.00002  -0.00001   1.00000
 This molecule is an asymmetric top.
 Rotational symmetry number  1.
 Rotational temperatures (Kelvin)      0.22617     0.03438     0.02997
 Rotational constants (GHZ):           4.71256     0.71643     0.62440
 Zero-point vibrational energy     346565.7 (Joules/Mol)
                                   82.83118 (Kcal/Mol)
 Warning -- explicit consideration of  12 degrees of freedom as
           vibrations may cause significant error
 Vibrational temperatures:    111.76   216.51   220.93   271.93   361.11
          (Kelvin)            386.52   552.93   588.50   700.83   725.63
                              776.95   797.05   931.46  1009.63  1016.23
                             1164.37  1193.33  1232.02  1405.00  1417.37
                             1444.05  1465.49  1657.84  1677.13  1688.41
                             1734.06  1774.94  1917.92  1960.26  1989.71
                             2129.48  2156.13  2170.05  2178.82  2221.91
                             2260.80  2370.00  3326.81  4404.53  4529.07
                             4605.56  4641.31  4643.50  4661.03  4675.56

 Zero-point correction=                           0.132000 (Hartree/Particle)
 Thermal correction to Energy=                    0.140741
 Thermal correction to Enthalpy=                  0.141686
 Thermal correction to Gibbs Free Energy=         0.098214
 Sum of electronic and zero-point Energies=           -455.264537
 Sum of electronic and thermal Energies=              -455.255796
 Sum of electronic and thermal Enthalpies=            -455.254852
 Sum of electronic and thermal Free Energies=         -455.298323

                     E (Thermal)             CV                S
                      KCal/Mol        Cal/Mol-Kelvin    Cal/Mol-Kelvin
 Total                   88.317             32.655             91.493
 Electronic               0.000              0.000              0.000
 Translational            0.889              2.981             40.614
 Rotational               0.889              2.981             29.413
 Vibrational             86.539             26.694             21.467
 Vibration     1          0.599              1.964              3.949
 Vibration     2          0.618              1.902              2.666
 Vibration     3          0.619              1.899              2.628
 Vibration     4          0.633              1.855              2.238
 Vibration     5          0.663              1.761              1.724
 Vibration     6          0.673              1.731              1.605
 Vibration     7          0.753              1.504              1.022
 Vibration     8          0.773              1.451              0.930
 Vibration     9          0.843              1.279              0.691
 Vibration    10          0.860              1.240              0.647
 Vibration    11          0.895              1.162              0.565
 Vibration    12          0.909              1.131              0.536

 Normal termination of Gaussian 09 at Thu Apr  7 02:27:22 2005.
