 Gaussian 09, Revision B.01,
 Gaussian 09:  EM64L-G09RevB.01 12-Aug-2010

 ----------------------------------------------------------------------
 #p Temperature=298.15 opt=(maxcycles=1024) SCF=(maxcycles=1024) freq R
 B3LYP/aug-cc-pVDZ
 ----------------------------------------------------------------------

 ----------------------------------------
 4-CH3O-Ph-N2+-RB3LYP-aug-cc-pVDZ-Singlet
 ----------------------------------------
 Symbolic Z-matrix:
 Charge =  1 Multiplicity = 1

 SCF Done:  E(RB3LYP) =  -455.409734886     A.U. after   17 cycles
 SCF Done:  E(RB3LYP) =  -455.418476601     A.U. after   16 cycles
 SCF Done:  E(RB3LYP) =  -455.419737356     A.U. after   16 cycles
 SCF Done:  E(RB3LYP) =  -455.419860906     A.U. after   11 cycles
 SCF Done:  E(RB3LYP) =  -455.419870090     A.U. after   10 cycles
 SCF Done:  E(RB3LYP) =  -455.419870414     A.U. after    9 cycles
 SCF Done:  E(RB3LYP) =  -455.419870754     A.U. after    9 cycles
 SCF Done:  E(RB3LYP) =  -455.418737846     A.U. after   15 cycles
 SCF Done:  E(RB3LYP) =  -455.419871832     A.U. after   15 cycles
 SCF Done:  E(RB3LYP) =  -455.421950456     A.U. after   16 cycles
 SCF Done:  E(RB3LYP) =  -455.430974855     A.U. after   16 cycles
 SCF Done:  E(RB3LYP) =  -455.434156375     A.U. after   16 cycles
 SCF Done:  E(RB3LYP) =  -455.433818699     A.U. after   13 cycles
 SCF Done:  E(RB3LYP) =  -455.434560661     A.U. after   13 cycles
 SCF Done:  E(RB3LYP) =  -455.434676645     A.U. after   16 cycles
 SCF Done:  E(RB3LYP) =  -455.434684028     A.U. after   11 cycles
 SCF Done:  E(RB3LYP) =  -455.434686214     A.U. after   17 cycles
 SCF Done:  E(RB3LYP) =  -455.434686758     A.U. after    9 cycles
 SCF Done:  E(RB3LYP) =  -455.434686891     A.U. after    9 cycles
 Optimization completed.
    -- Stationary point found.
 Normal termination of Gaussian 09 at Sun May 27 08:46:07 2018.

 ----------------------------------------------------------------------
 #P Geom=AllCheck Guess=TCheck SCRF=Check GenChk RB3LYP/Aug-CC-pVDZ Fre
 q
 ----------------------------------------------------------------------

 4-CH3O-Ph-N2+-RB3LYP-aug-cc-pVDZ-Singlet
 ----------------------------------------
 Redundant internal coordinates taken from checkpoint file:
 /home/ubuntu/g09/Gau-24677.chk
 Charge =  1 Multiplicity = 1

                         Standard orientation:
 ---------------------------------------------------------------------
 Center     Atomic      Atomic             Coordinates (Angstroms)
 Number     Number       Type             X           Y           Z
 ---------------------------------------------------------------------
      1          6           0       -0.689015   -1.031995   -0.000143
      2          6           0        0.681947   -1.185848   -0.000178
      3          6           0        1.492601   -0.025756   -0.000096
      4          6           0        0.951293    1.287980   -0.000135
      5          6           0       -0.415339    1.421322   -0.000096
      6          6           0       -1.254772    0.271597    0.000008
      7          1           0       -1.320579   -1.915991   -0.000270
      8          1           0        1.135644   -2.175726   -0.000267
      9          1           0        1.606510    2.157487   -0.000148
     10          1           0       -0.882074    2.404775   -0.000119
     11          7           0        2.847773   -0.176910    0.000117
     12          7           0        3.960660   -0.296151    0.000226
     13          8           0       -2.551828    0.521982    0.000129
     14          6           0       -3.515714   -0.559448    0.000130
     15          1           0       -4.489619   -0.066284   -0.000012
     16          1           0       -3.400209   -1.167782    0.905897
     17          1           0       -3.400090   -1.168019   -0.905452
 ---------------------------------------------------------------------

 SCF Done:  E(RB3LYP) =  -455.434686891     A.U. after    2 cycles

 The electronic state is 1-A.
 Alpha  occ. eigenvalues --  -19.36411 -14.70422 -14.66315 -10.45621 -10.45382
 Alpha  occ. eigenvalues --  -10.40746 -10.40245 -10.39000 -10.38118 -10.37681
 Alpha  occ. eigenvalues --   -1.35550  -1.25885  -1.09703  -1.01284  -0.95749
 Alpha  occ. eigenvalues --   -0.90938  -0.84656  -0.81535  -0.76140  -0.71572
 Alpha  occ. eigenvalues --   -0.71023  -0.70818  -0.67559  -0.65547  -0.63731
 Alpha  occ. eigenvalues --   -0.63691  -0.62556  -0.60083  -0.58428  -0.56571
 Alpha  occ. eigenvalues --   -0.54923  -0.51539  -0.50367  -0.45645  -0.42206
 Alpha virt. eigenvalues --   -0.27456  -0.26240  -0.20314  -0.16225  -0.14195
 Alpha virt. eigenvalues --   -0.11758  -0.11224  -0.10533  -0.09079  -0.08975
 Alpha virt. eigenvalues --   -0.08353  -0.07053  -0.06929  -0.05291  -0.05179

 Mulliken atomic charges:
              1
     1  C    1.238159
     2  C    0.630701
     3  C    0.802284
     4  C    0.786107
     5  C    1.011826
     6  C    0.493929
     7  H   -1.127564
     8  H   -0.752196
     9  H   -0.754137
    10  H   -0.845363
    11  N    0.422797
    12  N   -0.706257
    13  O   -0.581538
    14  C    1.208462
    15  H   -0.499038
    16  H   -0.164081
    17  H   -0.164089
 Sum of Mulliken atomic charges =   1.00000

 Dipole moment (field-independent basis, Debye):
    X=              1.2702    Y=             -1.2077    Z=             -0.0002  Tot=              1.7527
 Quadrupole moment (field-independent basis, Debye-Ang):
   XX=            -21.4262   YY=            -43.6710   ZZ=            -56.8828
   XY=              4.2333   XZ=              0.0001   YZ=              0.0002

  Exact polarizability: 185.753  -1.571  89.091   0.002   0.000  54.737
 Approx polarizability: 354.672 -16.590 146.727   0.005   0.001  84.560

                     1                      2                      3
                     A                      A                      A
 Frequencies --    78.2776               150.1128               150.7180
 Red. masses --     4.5883                 4.1455                 6.9842
 Frc consts  --     0.0166                 0.0550                 0.0935
 IR Inten    --     0.3587                 4.9718                 0.7173

                     4                      5                      6
                     A                      A                      A
 Frequencies --   198.5930               251.2496               268.6803
 Red. masses --     1.1434                 3.4912                 4.4869
 Frc consts  --     0.0266                 0.1298                 0.1908
 IR Inten    --     0.0426                 3.0849                 1.3630

                     7                      8                      9
                     A                      A                      A
 Frequencies --   382.7928               411.8813               489.5407
 Red. masses --     7.8929                 3.0107                 3.8372
 Frc consts  --     0.6814                 0.3009                 0.5418
 IR Inten    --     4.6031                 0.1933                 3.2718

                    10                     11                     12
                     A                      A                      A
 Frequencies --   501.5525               534.9137               546.8217
 Red. masses --     5.3638                 4.6946                 6.2784
 Frc consts  --     0.7950                 0.7914                 1.1061
 IR Inten    --    21.7462                14.3353                 1.9818

                    13                     14                     15
                     A                      A                      A
 Frequencies --   644.9019               702.4188               724.8998
 Red. masses --     7.3190                 5.4708                 3.0193
 Frc consts  --     1.7934                 1.5904                 0.9348
 IR Inten    --     2.5071                 5.5215                 1.9639

                    16                     17                     18
                     A                      A                      A
 Frequencies --   803.6851               825.2205               858.5714
 Red. masses --     1.2532                 6.1756                 1.8310
 Frc consts  --     0.4769                 2.4778                 0.7952
 IR Inten    --     0.6125                 2.7479                66.4523

                    19                     20                     21
                     A                      A                      A
 Frequencies --   977.9476               992.9723               998.1363
 Red. masses --     1.3395                 1.3468                 2.6666
 Frc consts  --     0.7548                 0.7824                 1.5653
 IR Inten    --     0.0146                 0.2532                 2.0239

                    22                     23                     24
                     A                      A                      A
 Frequencies --  1006.1284              1142.6897              1149.7141
 Red. masses --     8.5511                 1.2568                 1.2678
 Frc consts  --     5.1001                 0.9669                 0.9874
 IR Inten    --    85.5649                12.1555                 0.9083

                    25                     26                     27
                     A                      A                      A
 Frequencies --  1157.0678              1191.0191              1218.7259
 Red. masses --     1.8795                 1.3386                 1.7930
 Frc consts  --     1.4826                 1.1187                 1.5691
 IR Inten    --   308.0934                 0.8831                 9.0396

                    28                     29                     30
                     A                      A                      A
 Frequencies --  1318.3641              1339.8991              1374.0324
 Red. masses --     1.3298                 2.8661                 4.9768
 Frc consts  --     1.3618                 3.0317                 5.5360
 IR Inten    --     1.9606               337.1054                62.8694

                    31                     32                     33
                     A                      A                      A
 Frequencies --  1446.6618              1467.5350              1475.7869
 Red. masses --     1.1913                 1.1430                 1.0447
 Frc consts  --     1.4690                 1.4504                 1.3406
 IR Inten    --    14.3671                27.1739                14.4746

                    34                     35                     36
                     A                      A                      A
 Frequencies --  1497.9099              1521.7884              1565.6216
 Red. masses --     3.8290                 2.9436                 6.1822
 Frc consts  --     5.0618                 4.0164                 8.9283
 IR Inten    --     9.4286               108.6048                30.4584

                    37                     38                     39
                     A                      A                      A
 Frequencies --  1630.1794              2296.9211              3049.3922
 Red. masses --     5.6425                13.9227                 1.0321
 Frc consts  --     8.8347                43.2779                 5.6545
 IR Inten    --   567.5171               571.0801                13.3316

                    40                     41                     42
                     A                      A                      A
 Frequencies --  3139.1402              3194.4592              3212.6558
 Red. masses --     1.1091                 1.1041                 1.0909
 Frc consts  --     6.4396                 6.6380                 6.6340
 IR Inten    --     6.9465                 1.0857                 3.1264

                    43                     44                     45
                     A                      A                      A
 Frequencies --  3213.2567              3224.5632              3239.0387
 Red. masses --     1.0927                 1.0984                 1.0942
 Frc consts  --     6.6471                 6.7287                 6.7636
 IR Inten    --     3.1713                 9.5446                 4.0596

 - Thermochemistry -
 -------------------
 Temperature   298.150 Kelvin.  Pressure   1.00000 Atm.
 Atom     1 has atomic number  6 and mass  12.00000

 Molecular mass:   135.05584 amu.
 Principal axes and moments of inertia in atomic units:
                           1         2         3
     Eigenvalues --   384.565002523.183242895.93992
           X            0.99987   0.01623   0.00000
           Y           -0.01623   0.99987   0.00000
           Z            0.00000   0.00000   1.00000
 This molecule is an asymmetric top.
 Rotational symmetry number  1.
 Rotational temperatures (Kelvin)      0.22523     0.03433     0.02991
 Rotational constants (GHZ):           4.69294     0.71526     0.62320
 Zero-point vibrational energy     344323.8 (Joules/Mol)
                                   82.29535 (Kcal/Mol)
 Warning -- explicit consideration of  12 degrees of freedom as
           vibrations may cause significant error
 Vibrational temperatures:    112.62   215.98   216.85   285.73   361.49
          (Kelvin)            386.57   550.75   592.60   704.34   721.62
                              769.62   786.75   927.87  1010.62  1042.97
                             1156.32  1187.31  1235.29  1407.05  1428.66
                             1436.09  1447.59  1644.07  1654.18  1664.76
                             1713.61  1753.47  1896.83  1927.81  1976.92
                             2081.42  2111.45  2123.33  2155.16  2189.51
                             2252.58  2345.46  3304.75  4387.39  4516.52
                             4596.11  4622.29  4623.15  4639.42  4660.25

 Zero-point correction=                           0.131146 (Hartree/Particle)
 Thermal correction to Energy=                    0.139890
 Thermal correction to Enthalpy=                  0.140835
 Thermal correction to Gibbs Free Energy=         0.097374
 Sum of electronic and zero-point Energies=           -455.303541
 Sum of electronic and thermal Energies=              -455.294797
 Sum of electronic and thermal Enthalpies=            -455.293852
 Sum of electronic and thermal Free Energies=         -455.337313

                     E (Thermal)             CV                S
                      KCal/Mol        Cal/Mol-Kelvin    Cal/Mol-Kelvin
 Total                   87.783             32.769             91.471
 Electronic               0.000              0.000              0.000
 Translational            0.889              2.981             40.614
 Rotational               0.889              2.981             29.420
 Vibrational             86.005             26.808             21.437
 Vibration     1          0.600              1.964              3.934
 Vibration     2          0.618              1.903              2.671
 Vibration     3          0.618              1.902              2.663
 Vibration     4          0.637              1.842              2.146
 Vibration     5          0.663              1.761              1.722
 Vibration     6          0.673              1.731              1.605
 Vibration     7          0.752              1.507              1.028
 Vibration     8          0.776              1.444              0.920
 Vibration     9          0.845              1.273              0.685
 Vibration    10          0.857              1.247              0.654
 Vibration    11          0.890              1.173              0.576
 Vibration    12          0.902              1.147              0.551

 Optimization completed.
    -- Stationary point found.
 Normal termination of Gaussian 09 at Sun May 27 08:59:04 2018.
