 Gaussian 09, Revision B.01,
 Gaussian 09:  EM64L-G09RevB.01 12-Aug-2010

 ----------------------------
 # opt freq rb3lyp/6-31G(d,p)
 ----------------------------

 -----------------------------
 4-HOOC-Ph-N2+-RB3LYP-6-31G_dp
 -----------------------------
 Symbolic Z-matrix:
 Charge =  1 Multiplicity = 1

 SCF Done:  E(RB3LYP) =  -529.414429680     A.U. after   18 cycles
 SCF Done:  E(RB3LYP) =  -529.422660005     A.U. after   14 cycles
 SCF Done:  E(RB3LYP) =  -529.423368254     A.U. after   12 cycles
 SCF Done:  E(RB3LYP) =  -529.423424648     A.U. after   12 cycles
 SCF Done:  E(RB3LYP) =  -529.423428508     A.U. after   10 cycles
 SCF Done:  E(RB3LYP) =  -529.423428551     A.U. after   16 cycles
 SCF Done:  E(RB3LYP) =  -529.423428324     A.U. after   16 cycles
 SCF Done:  E(RB3LYP) =  -529.423428824     A.U. after    8 cycles
 Optimization completed.
    -- Stationary point found.
 Normal termination of Gaussian 09 at Thu Apr  7 02:29:37 2005.

 ----------------------------------------------------------------------
 #N Geom=AllCheck Guess=TCheck SCRF=Check GenChk RB3LYP/6-31G(d,p) Freq
 ----------------------------------------------------------------------

 4-HOOC-Ph-N2+-RB3LYP-6-31G_dp
 -----------------------------
 Redundant internal coordinates taken from checkpoint file:
 /home/ubuntu/g09/Gau-28531.chk
 Charge =  1 Multiplicity = 1

                         Standard orientation:
 ---------------------------------------------------------------------
 Center     Atomic      Atomic             Coordinates (Angstroms)
 Number     Number       Type             X           Y           Z
 ---------------------------------------------------------------------
      1          6           0        1.087511   -1.244139   -0.000061
      2          6           0        1.760647   -0.005213    0.000000
      3          6           0        1.112197    1.247991    0.000053
      4          6           0       -0.271715    1.238372    0.000063
      5          6           0       -0.973471    0.021241   -0.000022
      6          6           0       -0.298202   -1.210858   -0.000079
      7          1           0        1.637857   -2.178338   -0.000077
      8          1           0        1.680360    2.171427    0.000093
      9          1           0       -0.836434    2.164392    0.000132
     10          1           0       -0.863297   -2.135249   -0.000136
     11          7           0        3.136960   -0.019736   -0.000009
     12          7           0        4.252099   -0.029274    0.000023
     13          6           0       -2.480068    0.104254   -0.000008
     14          8           0       -3.069546    1.158667   -0.000145
     15          8           0       -3.048889   -1.108296    0.000152
     16          1           0       -4.015814   -0.992018    0.000152
 ---------------------------------------------------------------------

 SCF Done:  E(RB3LYP) =  -529.423428824     A.U. after    2 cycles

 The electronic state is 1-A.
 Alpha  occ. eigenvalues --  -19.34408 -19.29010 -14.73780 -14.70116 -10.48278
 Alpha  occ. eigenvalues --  -10.47630 -10.42026 -10.41904 -10.40829 -10.39476
 Alpha  occ. eigenvalues --  -10.39201  -1.38426  -1.25491  -1.16767  -1.11564
 Alpha  occ. eigenvalues --   -1.03113  -0.96376  -0.91705  -0.83018  -0.80264
 Alpha  occ. eigenvalues --   -0.76507  -0.73585  -0.72939  -0.70533  -0.69088
 Alpha  occ. eigenvalues --   -0.65396  -0.64343  -0.63417  -0.61664  -0.60481
 Alpha  occ. eigenvalues --   -0.59124  -0.56901  -0.55358  -0.53588  -0.47553
 Alpha  occ. eigenvalues --   -0.46323  -0.45677  -0.42825
 Alpha virt. eigenvalues --   -0.30284  -0.28379  -0.20445  -0.19824  -0.10994
 Alpha virt. eigenvalues --   -0.09679  -0.04705  -0.03232  -0.01749  -0.01290
 Alpha virt. eigenvalues --    0.00917   0.03420   0.03878   0.09832   0.10873

 Mulliken atomic charges:
              1
     1  C   -0.035200
     2  C    0.253205
     3  C   -0.035718
     4  C   -0.086899
     5  C    0.058018
     6  C   -0.087775
     7  H    0.185179
     8  H    0.186314
     9  H    0.195590
    10  H    0.190060
    11  N    0.128685
    12  N   -0.016051
    13  C    0.598586
    14  O   -0.414357
    15  O   -0.481594
    16  H    0.361955
 Sum of Mulliken atomic charges =   1.00000

 Dipole moment (field-independent basis, Debye):
    X=              5.9029    Y=             -1.4911    Z=              0.0002  Tot=              6.0884
 Quadrupole moment (field-independent basis, Debye-Ang):
   XX=            -21.8621   YY=            -48.9790   ZZ=            -59.4738
   XY=              6.7541   XZ=             -0.0010   YZ=              0.0011

  Exact polarizability: 159.523  -1.376  86.077   0.001   0.001  32.099
 Approx polarizability: 287.345  -8.632 160.280   0.003   0.001  49.777

                     1                      2                      3
                     A                      A                      A
 Frequencies --    63.4133                78.9947               141.5700
 Red. masses --     7.1616                 8.5191                 9.8497
 Frc consts  --     0.0170                 0.0313                 0.1163
 IR Inten    --     1.3072                 0.0324                 1.2072

                     4                      5                      6
                     A                      A                      A
 Frequencies --   214.3863               232.2115               322.2119
 Red. masses --     6.7076                 6.1332                11.2629
 Frc consts  --     0.1816                 0.1949                 0.6889
 IR Inten    --     0.6389                 1.6799                13.1300

                     7                      8                      9
                     A                      A                      A
 Frequencies --   397.8082               420.9351               482.8393
 Red. masses --     2.9300                 4.1252                 8.3778
 Frc consts  --     0.2732                 0.4307                 1.1508
 IR Inten    --     0.2137                 7.3830                 5.5421

                    10                     11                     12
                     A                      A                      A
 Frequencies --   552.0026               552.7716               562.2088
 Red. masses --     6.6099                 6.1409                 6.8883
 Frc consts  --     1.1867                 1.1055                 1.2828
 IR Inten    --     8.0482                21.5334                 2.0813

                    13                     14                     15
                     A                      A                      A
 Frequencies --   608.0395               645.6553               685.8259
 Red. masses --     1.5422                 7.5900                 2.3284
 Frc consts  --     0.3359                 1.8642                 0.6453
 IR Inten    --    27.5152                 0.7018                86.6244

                    16                     17                     18
                     A                      A                      A
 Frequencies --   699.4299               764.4184               818.2215
 Red. masses --     4.2216                 3.2515                 6.0327
 Frc consts  --     1.2168                 1.1194                 2.3796
 IR Inten    --    75.8126                54.8752                 9.7794

                    19                     20                     21
                     A                      A                      A
 Frequencies --   837.3496               879.6823              1000.5531
 Red. masses --     1.2593                 1.7798                 1.3275
 Frc consts  --     0.5202                 0.8115                 0.7830
 IR Inten    --     0.0000                28.6954                 0.3120

                    22                     23                     24
                     A                      A                      A
 Frequencies --  1013.2006              1023.7222              1130.8456
 Red. masses --     1.3317                 2.9966                 4.1283
 Frc consts  --     0.8055                 1.8503                 3.1105
 IR Inten    --     0.4695                 3.4499               109.9467

                    25                     26                     27
                     A                      A                      A
 Frequencies --  1138.7971              1143.6636              1195.6533
 Red. masses --     3.3835                 1.3941                 1.5056
 Frc consts  --     2.5853                 1.0743                 1.2681
 IR Inten    --   129.9324                 4.6563               188.3233

                    28                     29                     30
                     A                      A                      A
 Frequencies --  1218.9589              1332.6765              1377.3577
 Red. masses --     1.5122                 1.2890                10.2152
 Frc consts  --     1.3239                 1.3489                11.4180
 IR Inten    --    35.8384                 3.1126                23.6741

                    31                     32                     33
                     A                      A                      A
 Frequencies --  1399.4338              1453.1248              1501.0502
 Red. masses --     2.9536                 3.1633                 2.1189
 Frc consts  --     3.4081                 3.9355                 2.8129
 IR Inten    --   141.1591                48.4025                19.9777

                    34                     35                     36
                     A                      A                      A
 Frequencies --  1594.1441              1635.0943              1837.7432
 Red. masses --     7.0253                 5.4463                11.3702
 Frc consts  --    10.5189                 8.5791                22.6249
 IR Inten    --     7.4824                89.3772               210.8126

                    37                     38                     39
                     A                      A                      A
 Frequencies --  2350.7742              3227.2719              3229.8726
 Red. masses --    13.9362                 1.0909                 1.0921
 Frc consts  --    45.3751                 6.6945                 6.7125
 IR Inten    --   339.7306                10.9642                 2.3496

                    40                     41                     42
                     A                      A                      A
 Frequencies --  3237.0136              3245.1589              3745.4669
 Red. masses --     1.0972                 1.0957                 1.0648
 Frc consts  --     6.7739                 6.7986                 8.8013
 IR Inten    --    15.3822                10.4314               183.4901

 - Thermochemistry -
 -------------------
 Temperature   298.150 Kelvin.  Pressure   1.00000 Atm.
 Atom     1 has atomic number  6 and mass  12.00000

 Molecular mass:   149.03510 amu.
 Principal axes and moments of inertia in atomic units:
                           1         2         3
     Eigenvalues --   479.766863096.033743575.80058
           X            0.99998   0.00557   0.00000
           Y           -0.00557   0.99998   0.00001
           Z            0.00000  -0.00001   1.00000
 This molecule is an asymmetric top.
 Rotational symmetry number  1.
 Warning -- assumption of classical behavior for rotation
           may cause significant error
 Rotational temperatures (Kelvin)      0.18053     0.02798     0.02422
 Rotational constants (GHZ):           3.76170     0.58292     0.50471
 Zero-point vibrational energy     299015.9 (Joules/Mol)
                                   71.46651 (Kcal/Mol)
 Warning -- explicit consideration of  13 degrees of freedom as
           vibrations may cause significant error
 Vibrational temperatures:     91.24   113.66   203.69   308.45   334.10
          (Kelvin)            463.59   572.36   605.63   694.70   794.21
                              795.31   808.89   874.83   928.95   986.75
                             1006.32  1099.83  1177.24  1204.76  1265.67
                             1439.57  1457.77  1472.91  1627.03  1638.47
                             1645.47  1720.28  1753.81  1917.42  1981.71
                             2013.47  2090.72  2159.67  2293.61  2352.53
                             2644.10  3382.24  4643.32  4647.06  4657.33
                             4669.05  5388.88

 Zero-point correction=                           0.113889 (Hartree/Particle)
 Thermal correction to Energy=                    0.122861
 Thermal correction to Enthalpy=                  0.123805
 Thermal correction to Gibbs Free Energy=         0.079071
 Sum of electronic and zero-point Energies=           -529.309540
 Sum of electronic and thermal Energies=              -529.300568
 Sum of electronic and thermal Enthalpies=            -529.299623
 Sum of electronic and thermal Free Energies=         -529.344358

                     E (Thermal)             CV                S
                      KCal/Mol        Cal/Mol-Kelvin    Cal/Mol-Kelvin
 Total                   77.097             33.591             94.151
 Electronic               0.000              0.000              0.000
 Translational            0.889              2.981             40.907
 Rotational               0.889              2.981             30.053
 Vibrational             75.319             27.630             23.191
 Vibration     1          0.597              1.972              4.348
 Vibration     2          0.600              1.963              3.916
 Vibration     3          0.615              1.912              2.783
 Vibration     4          0.644              1.819              2.006
 Vibration     5          0.653              1.792              1.862
 Vibration     6          0.707              1.631              1.299
 Vibration     7          0.764              1.475              0.971
 Vibration     8          0.783              1.425              0.889
 Vibration     9          0.839              1.288              0.702
 Vibration    10          0.907              1.135              0.540
 Vibration    11          0.908              1.134              0.538
 Vibration    12          0.918              1.113              0.519
 Vibration    13          0.967              1.015              0.436

 Optimization completed.
    -- Stationary point found.
 Normal termination of Gaussian 09 at Thu Apr  7 02:31:14 2005.
