 Gaussian 09, Revision B.01,
 Gaussian 09:  EM64L-G09RevB.01 12-Aug-2010

 ----------------------------
 # opt freq rb3lyp/6-31G(d,p)
 ----------------------------

 --------------------------------
 4-HOOC-Ph-N2-OTf-RB3LYP-6-31G_dp
 --------------------------------
 Symbolic Z-matrix:
 Charge =  0 Multiplicity = 1

 SCF Done:  E(RB3LYP) =  -1490.98928432     A.U. after   29 cycles
 SCF Done:  E(RB3LYP) =  -1491.02626669     A.U. after   29 cycles
 SCF Done:  E(RB3LYP) =  -1491.03944083     A.U. after   27 cycles
 SCF Done:  E(RB3LYP) =  -1491.04839307     A.U. after   21 cycles
 SCF Done:  E(RB3LYP) =  -1491.06123808     A.U. after   15 cycles
 SCF Done:  E(RB3LYP) =  -1491.06354389     A.U. after   13 cycles
 SCF Done:  E(RB3LYP) =  -1491.06222703     A.U. after   14 cycles
 SCF Done:  E(RB3LYP) =  -1491.06414552     A.U. after   14 cycles
 SCF Done:  E(RB3LYP) =  -1491.06438635     A.U. after   14 cycles
 SCF Done:  E(RB3LYP) =  -1491.06474026     A.U. after   12 cycles
 SCF Done:  E(RB3LYP) =  -1491.06666658     A.U. after   12 cycles
 SCF Done:  E(RB3LYP) =  -1491.06666894     A.U. after   10 cycles
 SCF Done:  E(RB3LYP) =  -1491.06667093     A.U. after    9 cycles
 SCF Done:  E(RB3LYP) =  -1491.06667196     A.U. after    9 cycles
 SCF Done:  E(RB3LYP) =  -1491.06667305     A.U. after    9 cycles
 SCF Done:  E(RB3LYP) =  -1491.06667440     A.U. after    9 cycles
 SCF Done:  E(RB3LYP) =  -1491.06667616     A.U. after   10 cycles
 SCF Done:  E(RB3LYP) =  -1491.06667712     A.U. after    9 cycles
 SCF Done:  E(RB3LYP) =  -1491.06667738     A.U. after    8 cycles
 Optimization completed.
    -- Stationary point found.
 Normal termination of Gaussian 09 at Thu Mar  3 20:21:55 2005.

 ----------------------------------------------------------------------
 #N Geom=AllCheck Guess=TCheck SCRF=Check GenChk RB3LYP/6-31G(d,p) Freq
 ----------------------------------------------------------------------

 4-HOOC-Ph-N2-OTf-RB3LYP-6-31G_dp
 --------------------------------
 Redundant internal coordinates taken from checkpoint file:
 Ph-N2-OTf-N2-Ph.chk
 Charge =  0 Multiplicity = 1

                         Standard orientation:
 ---------------------------------------------------------------------
 Center     Atomic      Atomic             Coordinates (Angstroms)
 Number     Number       Type             X           Y           Z
 ---------------------------------------------------------------------
      1          6           0       -1.431442   -0.258122   -0.212453
      2          6           0       -1.369912    1.132169   -0.040957
      3          6           0       -2.498342    1.955808    0.104372
      4          6           0       -3.741710    1.345809    0.101501
      5          6           0       -3.842865   -0.045167   -0.060978
      6          6           0       -2.697640   -0.835807   -0.221850
      7          1           0       -0.508363   -0.820855   -0.348314
      8          1           0       -2.388581    3.027345    0.225170
      9          1           0       -4.649896    1.925236    0.219500
     10          1           0       -2.794884   -1.906902   -0.350754
     11          7           0       -0.120924    1.742439   -0.020486
     12          7           0        0.953495    2.043685    0.107884
     13         16           0        2.358928   -0.701303    0.402305
     14          8           0        1.922521    0.423476    1.310779
     15          8           0        2.728987   -1.932636    1.103153
     16          8           0        1.459356   -0.831116   -0.776179
     17          6           0        3.934587   -0.046078   -0.337181
     18          9           0        4.852520    0.161470    0.612480
     19          9           0        3.695747    1.124211   -0.959649
     20          9           0        4.428574   -0.907334   -1.233399
     21          6           0       -5.220743   -0.634152   -0.057271
     22          8           0       -6.232107    0.020898    0.072946
     23          8           0       -5.212806   -1.972399   -0.213784
     24          1           0       -6.139888   -2.264498   -0.195574
 ---------------------------------------------------------------------

 SCF Done:  E(RB3LYP) =  -1491.06667738     A.U. after    1 cycles

 The electronic state is 1-A.
 Alpha  occ. eigenvalues --  -89.08945 -24.71914 -24.71674 -24.71641 -19.24069
 Alpha  occ. eigenvalues --  -19.18415 -19.12777 -19.11753 -19.11337 -14.55474
 Alpha  occ. eigenvalues --  -14.54320 -10.42146 -10.36913 -10.33764 -10.28212
 Alpha  occ. eigenvalues --  -10.27673 -10.26763 -10.26540 -10.26285  -8.11254
 Alpha  occ. eigenvalues --   -6.07718  -6.07678  -6.07652  -1.29632  -1.21027
 Alpha  occ. eigenvalues --   -1.20886  -1.20872  -1.15056  -1.09818  -1.06037
 Alpha  occ. eigenvalues --   -0.96792  -0.96526  -0.96057  -0.89097  -0.82703
 Alpha  occ. eigenvalues --   -0.78350  -0.71053  -0.69636  -0.67898  -0.63301
 Alpha  occ. eigenvalues --   -0.61912  -0.58226  -0.57364  -0.57272  -0.57095
 Alpha  occ. eigenvalues --   -0.56684  -0.54551  -0.52797  -0.51751  -0.51420
 Alpha  occ. eigenvalues --   -0.49812  -0.49503  -0.49410  -0.46959  -0.45151
 Alpha  occ. eigenvalues --   -0.44881  -0.44045  -0.43566  -0.43352  -0.43144
 Alpha  occ. eigenvalues --   -0.42662  -0.41455  -0.41025  -0.40913  -0.38903
 Alpha  occ. eigenvalues --   -0.36414  -0.33713  -0.32641  -0.32352  -0.32042
 Alpha  occ. eigenvalues --   -0.31766  -0.28849  -0.28671  -0.27742  -0.24737
 Alpha virt. eigenvalues --   -0.15263  -0.11780  -0.07323  -0.06767   0.01277
 Alpha virt. eigenvalues --    0.03573   0.05399   0.10098   0.10891   0.11503
 Alpha virt. eigenvalues --    0.11854   0.12131   0.12638   0.13060   0.13851

 Mulliken atomic charges:
              1
     1  C   -0.010812
     2  C    0.236465
     3  C   -0.065351
     4  C   -0.100638
     5  C    0.058937
     6  C   -0.120216
     7  H    0.218782
     8  H    0.146622
     9  H    0.154671
    10  H    0.160517
    11  N    0.098375
    12  N   -0.024387
    13  S    1.155172
    14  O   -0.592969
    15  O   -0.507377
    16  O   -0.618623
    17  C    0.573668
    18  F   -0.239196
    19  F   -0.258489
    20  F   -0.239745
    21  C    0.572119
    22  O   -0.450963
    23  O   -0.486825
    24  H    0.340264
 Sum of Mulliken atomic charges =   0.00000

 Dipole moment (field-independent basis, Debye):
    X=            -10.1450    Y=              4.2218    Z=             -1.7935  Tot=             11.1338
 Quadrupole moment (field-independent basis, Debye-Ang):
   XX=           -113.0162   YY=           -100.1470   ZZ=           -115.9625
   XY=             13.2596   XZ=             -3.4606   YZ=              2.1438

  Exact polarizability: 242.428  -5.037 138.067   8.775   0.760  68.761
 Approx polarizability: 345.741  -8.290 257.097  21.541  -1.529 122.131

                     1                      2                      3
                     A                      A                      A
 Frequencies --    13.6220                26.9110                35.6014
 Red. masses --    13.0032                13.2897                 9.0170
 Frc consts  --     0.0014                 0.0057                 0.0067
 IR Inten    --     1.0615                 3.0492                 1.5811

                     4                      5                      6
                     A                      A                      A
 Frequencies --    45.5154                53.5318                71.8949
 Red. masses --    10.1103                14.6209                 5.8516
 Frc consts  --     0.0123                 0.0247                 0.0178
 IR Inten    --     3.7533                 3.1297                 0.2862

                     7                      8                      9
                     A                      A                      A
 Frequencies --    81.0743                96.4047               147.0402
 Red. masses --    10.2924                10.6820                11.2217
 Frc consts  --     0.0399                 0.0585                 0.1429
 IR Inten    --     0.4058                 4.3002                14.9717

                    10                     11                     12
                     A                      A                      A
 Frequencies --   196.0460               203.3990               207.7103
 Red. masses --    16.6447                 9.2545                16.0344
 Frc consts  --     0.3769                 0.2256                 0.4076
 IR Inten    --    21.2369                57.4968                 1.0598

                    13                     14                     15
                     A                      A                      A
 Frequencies --   225.1411               258.5457               305.1283
 Red. masses --     6.8245                 8.8788                17.5183
 Frc consts  --     0.2038                 0.3497                 0.9610
 IR Inten    --     5.0955                75.3920                 0.9680

                    16                     17                     18
                     A                      A                      A
 Frequencies --   327.1414               333.4263               346.0037
 Red. masses --    11.9798                15.6506                17.1106
 Frc consts  --     0.7554                 1.0251                 1.2069
 IR Inten    --     8.3690                 1.3889                26.6669

                    19                     20                     21
                     A                      A                      A
 Frequencies --   411.0840               415.3195               467.5470
 Red. masses --     3.1330                 5.1553                 8.5213
 Frc consts  --     0.3119                 0.5239                 1.0975
 IR Inten    --     5.7391                19.8126                52.6576

                    22                     23                     24
                     A                      A                      A
 Frequencies --   493.9539               503.9302               518.6903
 Red. masses --    17.6648                12.1769                 5.7931
 Frc consts  --     2.5394                 1.8219                 0.9183
 IR Inten    --    16.2189                31.7360                14.2632

                    25                     26                     27
                     A                      A                      A
 Frequencies --   546.4348               556.9311               563.5490
 Red. masses --     5.7417                12.2968                16.4645
 Frc consts  --     1.0101                 2.2472                 3.0808
 IR Inten    --    16.5744                 6.5940                 9.8018

                    28                     29                     30
                     A                      A                      A
 Frequencies --   564.8599               607.9200               617.4552
 Red. masses --     7.4745                 1.4384                13.1775
 Frc consts  --     1.4051                 0.3132                 2.9600
 IR Inten    --    12.7739                56.4781               174.0993

                    31                     32                     33
                     A                      A                      A
 Frequencies --   647.2047               696.0669               701.5421
 Red. masses --     7.2670                 3.1605                 4.1292
 Frc consts  --     1.7935                 0.9022                 1.1974
 IR Inten    --     0.3891                59.4382                64.0097

                    34                     35                     36
                     A                      A                      A
 Frequencies --   757.6230               773.0987               821.3095
 Red. masses --    18.2245                 3.5816                 6.0006
 Frc consts  --     6.1633                 1.2612                 2.3848
 IR Inten    --     1.0418                52.1151                 4.5297

                    37                     38                     39
                     A                      A                      A
 Frequencies --   857.8543               906.9033               970.8718
 Red. masses --     1.3803                 1.5085                16.4011
 Frc consts  --     0.5985                 0.7310                 9.1085
 IR Inten    --     5.5393                19.2521               398.3753

                    40                     41                     42
                     A                      A                      A
 Frequencies --   998.0531              1032.6422              1043.5289
 Red. masses --     1.3213                 3.0461                 1.3045
 Frc consts  --     0.7755                 1.9138                 0.8369
 IR Inten    --     0.4536                 3.0256                 2.4816

                    43                     44                     45
                     A                      A                      A
 Frequencies --  1122.0252              1127.7451              1137.8397
 Red. masses --     4.6609                 2.7451                 3.5293
 Frc consts  --     3.4572                 2.0570                 2.6922
 IR Inten    --    50.9176               144.5286                68.4859

                    46                     47                     48
                     A                      A                      A
 Frequencies --  1149.4458              1199.1043              1207.9755
 Red. masses --     2.3056                 1.4960                12.1882
 Frc consts  --     1.7948                 1.2673                10.4787
 IR Inten    --    60.1372               188.7659               133.0280

                    49                     50                     51
                     A                      A                      A
 Frequencies --  1219.2541              1228.9120              1245.1390
 Red. masses --     1.5124                13.5532                13.2197
 Frc consts  --     1.3247                12.0596                12.0756
 IR Inten    --    43.8223               140.7086               261.6944

                    52                     53                     54
                     A                      A                      A
 Frequencies --  1284.5932              1338.8276              1366.2787
 Red. masses --    15.4613                 1.3114                10.3948
 Frc consts  --    15.0323                 1.3850                11.4326
 IR Inten    --   383.1233                 6.1421                23.2262

                    55                     56                     57
                     A                      A                      A
 Frequencies --  1396.6397              1455.7184              1518.4268
 Red. masses --     2.8339                 3.0190                 2.1605
 Frc consts  --     3.2569                 3.7694                 2.9349
 IR Inten    --   161.8862                42.6518                 5.4430

                    58                     59                     60
                     A                      A                      A
 Frequencies --  1610.4362              1645.7727              1828.4429
 Red. masses --     7.2985                 5.4860                10.6798
 Frc consts  --    11.1525                 8.7548                21.0366
 IR Inten    --     3.7168                 3.7059               289.5284

                    61                     62                     63
                     A                      A                      A
 Frequencies --  2281.4274              3146.3677              3225.2377
 Red. masses --    13.9545                 1.0994                 1.0905
 Frc consts  --    42.7936                 6.4123                 6.6835
 IR Inten    --   287.6592               176.1210                 0.6010

                    64                     65                     66
                     A                      A                      A
 Frequencies --  3238.4935              3241.0280              3761.8533
 Red. masses --     1.0954                 1.0927                 1.0645
 Frc consts  --     6.7689                 6.7626                 8.8758
 IR Inten    --     2.5254                 1.6695               125.2887

 - Thermochemistry -
 -------------------
 Temperature   298.150 Kelvin.  Pressure   1.00000 Atm.
 Atom     1 has atomic number  6 and mass  12.00000

 Molecular mass:   297.98713 amu.
 Principal axes and moments of inertia in atomic units:
                           1         2         3
     Eigenvalues --  1899.13305********************
           X            1.00000   0.00076   0.00191
           Y           -0.00078   0.99997   0.00797
           Z           -0.00190  -0.00798   0.99997
 This molecule is an asymmetric top.
 Rotational symmetry number  1.
 Warning -- assumption of classical behavior for rotation
           may cause significant error
 Rotational temperatures (Kelvin)      0.04561     0.00639     0.00593
 Rotational constants (GHZ):           0.95030     0.13313     0.12359
 Zero-point vibrational energy     373387.4 (Joules/Mol)
                                   89.24173 (Kcal/Mol)
 Warning -- explicit consideration of  30 degrees of freedom as
           vibrations may cause significant error
 Vibrational temperatures:     19.60    38.72    51.22    65.49    77.02
          (Kelvin)            103.44   116.65   138.70   211.56   282.07
                              292.65   298.85   323.93   371.99   439.01
                              470.68   479.73   497.82   591.46   597.55
                              672.69   710.69   725.04   746.28   786.20
                              801.30   810.82   812.71   874.66   888.38
                              931.18  1001.48  1009.36  1090.05  1112.32
                             1181.68  1234.26  1304.83  1396.87  1435.97
                             1485.74  1501.40  1614.34  1622.57  1637.10
                             1653.79  1725.24  1738.01  1754.23  1768.13
                             1791.48  1848.24  1926.27  1965.77  2009.45
                             2094.45  2184.67  2317.06  2367.90  2630.72
                             3282.46  4526.92  4640.39  4659.46  4663.11
                             5412.46

 Zero-point correction=                           0.142216 (Hartree/Particle)
 Thermal correction to Energy=                    0.160188
 Thermal correction to Enthalpy=                  0.161132
 Thermal correction to Gibbs Free Energy=         0.092034
 Sum of electronic and zero-point Energies=          -1490.924462
 Sum of electronic and thermal Energies=             -1490.906490
 Sum of electronic and thermal Enthalpies=           -1490.905545
 Sum of electronic and thermal Free Energies=        -1490.974644

                     E (Thermal)             CV                S
                      KCal/Mol        Cal/Mol-Kelvin    Cal/Mol-Kelvin
 Total                  100.519             63.522            145.429
 Electronic               0.000              0.000              0.000
 Translational            0.889              2.981             42.973
 Rotational               0.889              2.981             34.285
 Vibrational             98.742             57.560             68.172
 Vibration     1          0.593              1.986              7.397
 Vibration     2          0.593              1.984              6.045
 Vibration     3          0.594              1.982              5.490
 Vibration     4          0.595              1.979              5.003
 Vibration     5          0.596              1.976              4.682
 Vibration     6          0.598              1.967              4.101
 Vibration     7          0.600              1.962              3.865
 Vibration     8          0.603              1.952              3.526
 Vibration     9          0.617              1.906              2.710
 Vibration    10          0.636              1.845              2.170
 Vibration    11          0.639              1.835              2.102
 Vibration    12          0.641              1.829              2.064
 Vibration    13          0.650              1.803              1.917
 Vibration    14          0.667              1.748              1.672
 Vibration    15          0.696              1.664              1.389
 Vibration    16          0.711              1.621              1.274
 Vibration    17          0.715              1.609              1.243
 Vibration    18          0.724              1.583              1.184
 Vibration    19          0.775              1.446              0.923
 Vibration    20          0.779              1.437              0.908
 Vibration    21          0.825              1.322              0.744
 Vibration    22          0.850              1.263              0.673
 Vibration    23          0.859              1.241              0.648
 Vibration    24          0.874              1.209              0.613
 Vibration    25          0.902              1.147              0.552
 Vibration    26          0.912              1.125              0.530
 Vibration    27          0.919              1.110              0.517
 Vibration    28          0.921              1.107              0.514
 Vibration    29          0.967              1.015              0.436
 Vibration    30          0.977              0.995              0.421

 Normal termination of Gaussian 09 at Thu Mar  3 20:28:44 2005.
