 Gaussian 09, Revision B.01,
 Gaussian 09:  EM64L-G09RevB.01 12-Aug-2010

 ----------------------------------------------------------------------
 #p Temperature=298.15 opt=(maxcycles=1024) SCF=(maxcycles=1024) freq R
 B3LYP/aug-cc-pVDZ
 ----------------------------------------------------------------------

 ----------------------------------------
 4-HOOC-Ph-N2+-RB3LYP-aug-cc-pVDZ-Singlet
 ----------------------------------------
 Symbolic Z-matrix:
 Charge =  1 Multiplicity = 1

 SCF Done:  E(RB3LYP) =  -529.472420595     A.U. after   18 cycles
 SCF Done:  E(RB3LYP) =  -529.480301574     A.U. after   14 cycles
 SCF Done:  E(RB3LYP) =  -529.480893416     A.U. after   13 cycles
 SCF Done:  E(RB3LYP) =  -529.480949658     A.U. after   12 cycles
 SCF Done:  E(RB3LYP) =  -529.480954588     A.U. after   11 cycles
 SCF Done:  E(RB3LYP) =  -529.480954186     A.U. after   17 cycles
 SCF Done:  E(RB3LYP) =  -529.480954789     A.U. after   10 cycles
 SCF Done:  E(RB3LYP) =  -529.480955024     A.U. after   17 cycles
 Optimization completed.
    -- Stationary point found.
 Normal termination of Gaussian 09 at Sun May 27 16:43:45 2018.

 ----------------------------------------------------------------------
 #P Geom=AllCheck Guess=TCheck SCRF=Check GenChk RB3LYP/Aug-CC-pVDZ Fre
 q
 ----------------------------------------------------------------------

 4-HOOC-Ph-N2+-RB3LYP-aug-cc-pVDZ-Singlet
 ----------------------------------------
 Redundant internal coordinates taken from checkpoint file:
 /home/ubuntu/g09/Gau-1450.chk
 Charge =  1 Multiplicity = 1

                         Standard orientation:
 ---------------------------------------------------------------------
 Center     Atomic      Atomic             Coordinates (Angstroms)
 Number     Number       Type             X           Y           Z
 ---------------------------------------------------------------------
      1          6           0        1.088849   -1.244560   -0.000083
      2          6           0        1.760899   -0.005505    0.000004
      3          6           0        1.116176    1.249282    0.000076
      4          6           0       -0.270699    1.241898    0.000082
      5          6           0       -0.975818    0.024468   -0.000059
      6          6           0       -0.299765   -1.209315   -0.000125
      7          1           0        1.640218   -2.183334   -0.000098
      8          1           0        1.687676    2.175904    0.000145
      9          1           0       -0.831765    2.175257    0.000180
     10          1           0       -0.864240   -2.139162   -0.000196
     11          7           0        3.145229   -0.021424    0.000005
     12          7           0        4.258743   -0.032023    0.000025
     13          6           0       -2.483966    0.105507   -0.000017
     14          8           0       -3.076476    1.156683   -0.000194
     15          8           0       -3.055029   -1.110111    0.000224
     16          1           0       -4.021707   -0.997761    0.000237
 ---------------------------------------------------------------------

 SCF Done:  E(RB3LYP) =  -529.480955022     A.U. after    3 cycles

 The electronic state is 1-A.
 Alpha  occ. eigenvalues --  -19.34598 -19.29287 -14.73405 -14.69880 -10.48419
 Alpha  occ. eigenvalues --  -10.47899 -10.42008 -10.41886 -10.41021 -10.39616
 Alpha  occ. eigenvalues --  -10.39354  -1.38899  -1.26450  -1.17871  -1.11850
 Alpha  occ. eigenvalues --   -1.03544  -0.96862  -0.92232  -0.83443  -0.80915
 Alpha  occ. eigenvalues --   -0.76999  -0.73878  -0.73315  -0.71041  -0.69656
 Alpha  occ. eigenvalues --   -0.66003  -0.64872  -0.63830  -0.62571  -0.61294
 Alpha  occ. eigenvalues --   -0.59744  -0.57554  -0.55934  -0.54500  -0.48385
 Alpha  occ. eigenvalues --   -0.47069  -0.46431  -0.43805
 Alpha virt. eigenvalues --   -0.30815  -0.28730  -0.21682  -0.20839  -0.15455
 Alpha virt. eigenvalues --   -0.12736  -0.11872  -0.11632  -0.10986  -0.09923
 Alpha virt. eigenvalues --   -0.09250  -0.07953  -0.06330  -0.06248  -0.05455

 Mulliken atomic charges:
              1
     1  C    0.554960
     2  C    0.547753
     3  C    0.664360
     4  C    0.740782
     5  C    1.556579
     6  C    1.033149
     7  H   -0.777870
     8  H   -0.767271
     9  H   -0.957622
    10  H   -0.882944
    11  N    0.477252
    12  N   -0.743998
    13  C    0.294520
    14  O   -0.474754
    15  O   -0.571748
    16  H    0.306854
 Sum of Mulliken atomic charges =   1.00000

 Dipole moment (field-independent basis, Debye):
    X=              6.2174    Y=             -1.5309    Z=              0.0003  Tot=              6.4031
 Quadrupole moment (field-independent basis, Debye-Ang):
   XX=            -23.2386   YY=            -49.7877   ZZ=            -60.4963
   XY=              6.9462   XZ=             -0.0013   YZ=              0.0016

  Exact polarizability: 170.698  -1.710  96.411   0.001   0.001  51.438
 Approx polarizability: 295.403  -7.937 174.828   0.004   0.001  81.049

                     1                      2                      3
                     A                      A                      A
 Frequencies --    60.1609                79.7405               138.9844
 Red. masses --     7.1680                 8.4159                 9.9146
 Frc consts  --     0.0153                 0.0315                 0.1128
 IR Inten    --     1.5397                 0.0675                 1.2716

                     4                      5                      6
                     A                      A                      A
 Frequencies --   219.3553               229.9534               320.9129
 Red. masses --     6.6504                 6.1852                11.2558
 Frc consts  --     0.1885                 0.1927                 0.6830
 IR Inten    --     0.5070                 1.9557                13.3994

                     7                      8                      9
                     A                      A                      A
 Frequencies --   400.8418               427.3555               480.2881
 Red. masses --     2.8090                 4.1996                 8.6072
 Frc consts  --     0.2659                 0.4519                 1.1698
 IR Inten    --     0.1580                 7.2943                 5.1994

                    10                     11                     12
                     A                      A                      A
 Frequencies --   546.8370               547.0664               557.6199
 Red. masses --     5.7950                 6.4983                 6.8602
 Frc consts  --     1.0210                 1.1459                 1.2568
 IR Inten    --    17.4781                 6.5666                 2.0566

                    13                     14                     15
                     A                      A                      A
 Frequencies --   625.4211               643.8042               694.6419
 Red. masses --     1.3739                 7.5805                 4.3413
 Frc consts  --     0.3166                 1.8512                 1.2342
 IR Inten    --    30.6366                 0.7397                71.5895

                    16                     17                     18
                     A                      A                      A
 Frequencies --   698.2007               783.7099               812.8167
 Red. masses --     2.4978                 2.6218                 6.0896
 Frc consts  --     0.7174                 0.9488                 2.3704
 IR Inten    --    82.6546                48.4459                 6.1353

                    19                     20                     21
                     A                      A                      A
 Frequencies --   829.0754               882.5413              1007.5108
 Red. masses --     1.2598                 1.9868                 1.4365
 Frc consts  --     0.5102                 0.9118                 0.8591
 IR Inten    --     0.0424                21.5256                 0.2018

                    22                     23                     24
                     A                      A                      A
 Frequencies --  1016.7274              1019.3225              1116.8725
 Red. masses --     1.3899                 2.9807                 4.7044
 Frc consts  --     0.8465                 1.8247                 3.4575
 IR Inten    --     0.2559                 4.2177               140.0766

                    25                     26                     27
                     A                      A                      A
 Frequencies --  1122.5288              1133.9483              1190.5206
 Red. masses --     3.3688                 1.3378                 1.3814
 Frc consts  --     2.5010                 1.0135                 1.1536
 IR Inten    --   114.4850                 3.3900               142.5249

                    28                     29                     30
                     A                      A                      A
 Frequencies --  1210.4826              1318.2985              1372.2351
 Red. masses --     1.6623                 1.2818                 7.0982
 Frc consts  --     1.4351                 1.3125                 7.8751
 IR Inten    --    74.6032                 3.3587                37.5940

                    31                     32                     33
                     A                      A                      A
 Frequencies --  1378.8471              1440.0922              1485.7071
 Red. masses --     3.0567                 3.2154                 2.1852
 Frc consts  --     3.4241                 3.9289                 2.8419
 IR Inten    --   107.4929                41.4620                19.3580

                    34                     35                     36
                     A                      A                      A
 Frequencies --  1589.2961              1624.2891              1802.3911
 Red. masses --     7.3303                 5.6438                10.9080
 Frc consts  --    10.9089                 8.7730                20.8781
 IR Inten    --     6.9281                82.5188               248.6767

                    37                     38                     39
                     A                      A                      A
 Frequencies --  2338.7526              3213.1667              3216.4992
 Red. masses --    13.9432                 1.0911                 1.0927
 Frc consts  --    44.9345                 6.6369                 6.6607
 IR Inten    --   304.6326                10.3677                 4.7193

                    40                     41                     42
                     A                      A                      A
 Frequencies --  3223.3696              3232.4509              3724.1526
 Red. masses --     1.0978                 1.0961                 1.0650
 Frc consts  --     6.7206                 6.7477                 8.7028
 IR Inten    --    16.5558                11.5990               193.8587

 - Thermochemistry -
 -------------------
 Temperature   298.150 Kelvin.  Pressure   1.00000 Atm.
 Atom     1 has atomic number  6 and mass  12.00000

 Molecular mass:   149.03510 amu.
 Principal axes and moments of inertia in atomic units:
                           1         2         3
     Eigenvalues --   480.580123107.884093588.46419
           X            0.99998   0.00561   0.00000
           Y           -0.00561   0.99998   0.00001
           Z            0.00000  -0.00001   1.00000
 This molecule is an asymmetric top.
 Rotational symmetry number  1.
 Warning -- assumption of classical behavior for rotation
           may cause significant error
 Rotational temperatures (Kelvin)      0.18023     0.02787     0.02414
 Rotational constants (GHZ):           3.75534     0.58070     0.50293
 Zero-point vibrational energy     297611.7 (Joules/Mol)
                                   71.13090 (Kcal/Mol)
 Warning -- explicit consideration of  12 degrees of freedom as
           vibrations may cause significant error
 Vibrational temperatures:     86.56   114.73   199.97   315.60   330.85
          (Kelvin)            461.72   576.72   614.87   691.03   786.78
                              787.11   802.29   899.84   926.29   999.43
                             1004.55  1127.58  1169.46  1192.85  1269.78
                             1449.58  1462.84  1466.58  1606.93  1615.07
                             1631.50  1712.89  1741.61  1896.74  1974.34
                             1983.85  2071.97  2137.60  2286.64  2336.99
                             2593.24  3364.94  4623.02  4627.82  4637.70
                             4650.77  5358.22

 Zero-point correction=                           0.113354 (Hartree/Particle)
 Thermal correction to Energy=                    0.122328
 Thermal correction to Enthalpy=                  0.123272
 Thermal correction to Gibbs Free Energy=         0.078496
 Sum of electronic and zero-point Energies=           -529.367601
 Sum of electronic and thermal Energies=              -529.358627
 Sum of electronic and thermal Enthalpies=            -529.357683
 Sum of electronic and thermal Free Energies=         -529.402459

                     E (Thermal)             CV                S
                      KCal/Mol        Cal/Mol-Kelvin    Cal/Mol-Kelvin
 Total                   76.762             33.613             94.241
 Electronic               0.000              0.000              0.000
 Translational            0.889              2.981             40.907
 Rotational               0.889              2.981             30.062
 Vibrational             74.985             27.652             23.271
 Vibration     1          0.597              1.973              4.452
 Vibration     2          0.600              1.963              3.897
 Vibration     3          0.615              1.914              2.818
 Vibration     4          0.647              1.812              1.964
 Vibration     5          0.652              1.795              1.879
 Vibration     6          0.706              1.634              1.305
 Vibration     7          0.767              1.468              0.960
 Vibration     8          0.789              1.411              0.867
 Vibration     9          0.837              1.294              0.709
 Vibration    10          0.902              1.147              0.551
 Vibration    11          0.902              1.146              0.550
 Vibration    12          0.913              1.123              0.529

 Optimization completed.
    -- Stationary point found.
 Normal termination of Gaussian 09 at Sun May 27 16:57:20 2018.
