 Gaussian 09, Revision B.01,
 Gaussian 09:  EM64L-G09RevB.01 12-Aug-2010

 ----------------------------
 # opt freq rb3lyp/6-31G(d,p)
 ----------------------------

 ----------------------------
 4-NO2-Ph-N2+-RB3LYP-6-31G_dp
 ----------------------------
 Symbolic Z-matrix:
 Charge =  1 Multiplicity = 1

 SCF Done:  E(RB3LYP) =  -545.327465108     A.U. after   19 cycles
 SCF Done:  E(RB3LYP) =  -545.329105151     A.U. after   14 cycles
 SCF Done:  E(RB3LYP) =  -545.328388548     A.U. after   15 cycles
 SCF Done:  E(RB3LYP) =  -545.329308534     A.U. after   15 cycles
 SCF Done:  E(RB3LYP) =  -545.329795726     A.U. after   15 cycles
 SCF Done:  E(RB3LYP) =  -545.329937423     A.U. after   12 cycles
 SCF Done:  E(RB3LYP) =  -545.329957733     A.U. after   11 cycles
 SCF Done:  E(RB3LYP) =  -545.329959010     A.U. after    9 cycles
 Optimization completed.
    -- Stationary point found.
 Normal termination of Gaussian 09 at Thu Apr  7 02:33:19 2005.

 ----------------------------------------------------------------------
 #N Geom=AllCheck Guess=TCheck SCRF=Check GenChk RB3LYP/6-31G(d,p) Freq
 ----------------------------------------------------------------------

 4-NO2-Ph-N2+-RB3LYP-6-31G_dp
 ----------------------------
 Redundant internal coordinates taken from checkpoint file:
 /home/ubuntu/g09/Gau-29588.chk
 Charge =  1 Multiplicity = 1

                         Standard orientation:
 ---------------------------------------------------------------------
 Center     Atomic      Atomic             Coordinates (Angstroms)
 Number     Number       Type             X           Y           Z
 ---------------------------------------------------------------------
      1          6           0       -0.328036   -1.230816    0.000222
      2          6           0        1.058717   -1.246815    0.000264
      3          6           0        1.716060    0.000221    0.000020
      4          6           0        1.058638    1.247024   -0.000174
      5          6           0       -0.328217    1.230799   -0.000100
      6          6           0       -0.985981    0.000001    0.000043
      7          1           0       -0.906295   -2.147321    0.000302
      8          1           0        1.617571   -2.176045    0.000384
      9          1           0        1.616955    2.176559   -0.000344
     10          1           0       -0.906312    2.147406   -0.000174
     11          7           0       -2.480164   -0.000053    0.000006
     12          8           0       -3.022618    1.095742    0.000409
     13          8           0       -3.022577   -1.095919   -0.000533
     14          7           0        3.096821    0.000055   -0.000072
     15          7           0        4.210852   -0.000241   -0.000052
 ---------------------------------------------------------------------

 SCF Done:  E(RB3LYP) =  -545.329959010     A.U. after    1 cycles

 The electronic state is 1-A.
 Alpha  occ. eigenvalues --  -19.33863 -19.33861 -14.75426 -14.73059 -14.71931
 Alpha  occ. eigenvalues --  -10.50161 -10.45352 -10.43909 -10.43909 -10.41465
 Alpha  occ. eigenvalues --  -10.41464  -1.40136  -1.38401  -1.21481  -1.13387
 Alpha  occ. eigenvalues --   -1.05851  -0.98427  -0.95538  -0.85048  -0.84116
 Alpha  occ. eigenvalues --   -0.78206  -0.75202  -0.74723  -0.72256  -0.70989
 Alpha  occ. eigenvalues --   -0.68974  -0.68093  -0.66508  -0.65383  -0.64836
 Alpha  occ. eigenvalues --   -0.62370  -0.59418  -0.57359  -0.49313  -0.48079
 Alpha  occ. eigenvalues --   -0.45988  -0.45981  -0.44746
 Alpha virt. eigenvalues --   -0.32018  -0.29938  -0.23422  -0.22425  -0.16929
 Alpha virt. eigenvalues --   -0.11622  -0.05080  -0.04964  -0.04590  -0.01747
 Alpha virt. eigenvalues --    0.00207   0.02257   0.06044   0.08698   0.10124

 Mulliken atomic charges:
              1
     1  C   -0.077412
     2  C   -0.038236
     3  C    0.262207
     4  C   -0.038207
     5  C   -0.077459
     6  C    0.277397
     7  H    0.212448
     8  H    0.195991
     9  H    0.196011
    10  H    0.212441
    11  N    0.421984
    12  O   -0.339337
    13  O   -0.339351
    14  N    0.132890
    15  N   -0.001367
 Sum of Mulliken atomic charges =   1.00000

 Dipole moment (field-independent basis, Debye):
    X=              9.5699    Y=              0.0011    Z=              0.0001  Tot=              9.5699
 Quadrupole moment (field-independent basis, Debye-Ang):
   XX=            -37.9238   YY=            -46.8174   ZZ=            -58.2479
   XY=             -0.0002   XZ=             -0.0010   YZ=             -0.0037

  Exact polarizability: 149.005  -0.003  87.603   0.000  -0.001  30.725
 Approx polarizability: 267.666  -0.010 182.864  -0.001   0.008  47.878

                     1                      2                      3
                     A                      A                      A
 Frequencies --    46.3012                81.9733               148.2949
 Red. masses --     8.2395                10.2958                11.0356
 Frc consts  --     0.0104                 0.0408                 0.1430
 IR Inten    --     0.0000                 2.2877                 3.1956

                     4                      5                      6
                     A                      A                      A
 Frequencies --   222.4614               264.8051               328.9662
 Red. masses --     7.8332                 6.9908                13.4513
 Frc consts  --     0.2284                 0.2888                 0.8577
 IR Inten    --     0.8773                 0.9003                10.2109

                     7                      8                      9
                     A                      A                      A
 Frequencies --   402.1473               432.8064               506.4725
 Red. masses --     2.9653                 4.8544                10.9661
 Frc consts  --     0.2825                 0.5358                 1.6574
 IR Inten    --     0.0000                 0.1359                 0.4384

                    10                     11                     12
                     A                      A                      A
 Frequencies --   553.6564               559.4281               571.5513
 Red. masses --     6.1884                 6.3889                 8.0058
 Frc consts  --     1.1177                 1.1781                 1.5409
 IR Inten    --    10.4072                 0.1971                 0.2138

                    13                     14                     15
                     A                      A                      A
 Frequencies --   642.9589               654.4378               742.5869
 Red. masses --     7.5671                 4.5148                 4.0693
 Frc consts  --     1.8431                 1.1393                 1.3221
 IR Inten    --     0.0034                15.0508                19.7408

                    16                     17                     18
                     A                      A                      A
 Frequencies --   774.8301               834.9733               862.4674
 Red. masses --     7.3764                 1.2512                10.3100
 Frc consts  --     2.6092                 0.5139                 4.5185
 IR Inten    --    21.0559                 0.0000                59.7412

                    19                     20                     21
                     A                      A                      A
 Frequencies --   880.3477              1001.4438              1004.5593
 Red. masses --     1.6745                 1.3145                 1.3373
 Frc consts  --     0.7646                 0.7767                 0.7951
 IR Inten    --    43.5218                 1.5250                 0.0000

                    22                     23                     24
                     A                      A                      A
 Frequencies --  1020.1910              1111.7077              1132.9985
 Red. masses --     2.8445                 3.2939                 3.8751
 Frc consts  --     1.7443                 2.3985                 2.9308
 IR Inten    --     3.7163                23.4488               118.3223

                    25                     26                     27
                     A                      A                      A
 Frequencies --  1135.4991              1204.3283              1322.0501
 Red. masses --     1.2474                 1.3809                 1.2885
 Frc consts  --     0.9476                 1.1800                 1.3269
 IR Inten    --     6.5652                 4.7052                 1.0480

                    28                     29                     30
                     A                      A                      A
 Frequencies --  1380.0577              1383.4876              1448.5995
 Red. masses --    14.3078                10.9893                 3.3099
 Frc consts  --    16.0552                12.3928                 4.0922
 IR Inten    --   154.4986                47.8513                20.5845

                    31                     32                     33
                     A                      A                      A
 Frequencies --  1492.6392              1611.8500              1621.5197
 Red. masses --     2.0387                 8.1125                 5.5518
 Frc consts  --     2.6762                12.4180                 8.6006
 IR Inten    --     0.0000                35.3049               111.4338

                    34                     35                     36
                     A                      A                      A
 Frequencies --  1685.6249              2360.9417              3230.9110
 Red. masses --    12.9509                13.9438                 1.0934
 Frc consts  --    21.6806                45.7933                 6.7246
 IR Inten    --   153.6103               261.8719                12.6226

                    37                     38                     39
                     A                      A                      A
 Frequencies --  3232.0300              3246.2290              3247.2124
 Red. masses --     1.0928                 1.0946                 1.0962
 Frc consts  --     6.7255                 6.7961                 6.8100
 IR Inten    --     5.0306                43.5647                16.9289

 - Thermochemistry -
 -------------------
 Temperature   298.150 Kelvin.  Pressure   1.00000 Atm.
 Atom     1 has atomic number  6 and mass  12.00000

 Molecular mass:   150.03035 amu.
 Principal axes and moments of inertia in atomic units:
                           1         2         3
     Eigenvalues --   467.555003015.359983482.91491
           X            1.00000   0.00000   0.00000
           Y            0.00000   1.00000  -0.00002
           Z            0.00000   0.00002   1.00000
 This molecule is an asymmetric top.
 Rotational symmetry number  1.
 Warning -- assumption of classical behavior for rotation
           may cause significant error
 Rotational temperatures (Kelvin)      0.18525     0.02872     0.02487
 Rotational constants (GHZ):           3.85995     0.59852     0.51817
 Zero-point vibrational energy     265483.3 (Joules/Mol)
                                   63.45204 (Kcal/Mol)
 Warning -- explicit consideration of  12 degrees of freedom as
           vibrations may cause significant error
 Vibrational temperatures:     66.62   117.94   213.36   320.07   380.99
          (Kelvin)            473.31   578.60   622.71   728.70   796.59
                              804.89   822.33   925.07   941.59  1068.42
                             1114.81  1201.34  1240.90  1266.62  1440.85
                             1445.33  1467.83  1599.50  1630.13  1633.73
                             1732.76  1902.13  1985.59  1990.53  2084.21
                             2147.57  2319.09  2333.00  2425.24  3396.86
                             4648.55  4650.16  4670.59  4672.01

 Zero-point correction=                           0.101117 (Hartree/Particle)
 Thermal correction to Energy=                    0.109817
 Thermal correction to Enthalpy=                  0.110762
 Thermal correction to Gibbs Free Energy=         0.066303
 Sum of electronic and zero-point Energies=           -545.228842
 Sum of electronic and thermal Energies=              -545.220142
 Sum of electronic and thermal Enthalpies=            -545.219197
 Sum of electronic and thermal Free Energies=         -545.263656

                     E (Thermal)             CV                S
                      KCal/Mol        Cal/Mol-Kelvin    Cal/Mol-Kelvin
 Total                   68.911             32.142             93.570
 Electronic               0.000              0.000              0.000
 Translational            0.889              2.981             40.927
 Rotational               0.889              2.981             29.975
 Vibrational             67.134             26.180             22.668
 Vibration     1          0.595              1.979              4.969
 Vibration     2          0.600              1.961              3.843
 Vibration     3          0.618              1.905              2.694
 Vibration     4          0.648              1.807              1.939
 Vibration     5          0.671              1.738              1.630
 Vibration     6          0.712              1.618              1.265
 Vibration     7          0.768              1.465              0.955
 Vibration     8          0.794              1.399              0.850
 Vibration     9          0.862              1.236              0.642
 Vibration    10          0.909              1.132              0.537
 Vibration    11          0.915              1.119              0.525
 Vibration    12          0.928              1.093              0.501

 Optimization completed.
    -- Stationary point found.
 Normal termination of Gaussian 09 at Thu Apr  7 02:34:47 2005.
