 Gaussian 09, Revision B.01,
 Gaussian 09:  EM64L-G09RevB.01 12-Aug-2010

 ----------------------------
 # opt freq rb3lyp/6-31G(d,p)
 ----------------------------

 -------------------------------
 4-NO2-Ph-N2-BF4-RB3LYP-6-31G_dp
 -------------------------------
 Symbolic Z-matrix:
 Charge =  0 Multiplicity = 1

 SCF Done:  E(RB3LYP) =  -969.994520245     A.U. after   19 cycles
 SCF Done:  E(RB3LYP) =  -969.995773677     A.U. after   13 cycles
 SCF Done:  E(RB3LYP) =  -969.995914611     A.U. after   12 cycles
 SCF Done:  E(RB3LYP) =  -969.995969229     A.U. after   12 cycles
 SCF Done:  E(RB3LYP) =  -969.995893026     A.U. after   19 cycles
 SCF Done:  E(RB3LYP) =  -969.996010560     A.U. after   19 cycles
 SCF Done:  E(RB3LYP) =  -969.996025671     A.U. after   10 cycles
 SCF Done:  E(RB3LYP) =  -969.996036263     A.U. after   11 cycles
 SCF Done:  E(RB3LYP) =  -969.996043606     A.U. after   11 cycles
 SCF Done:  E(RB3LYP) =  -969.996048598     A.U. after   11 cycles
 SCF Done:  E(RB3LYP) =  -969.996057111     A.U. after   10 cycles
 SCF Done:  E(RB3LYP) =  -969.996057780     A.U. after    9 cycles
 SCF Done:  E(RB3LYP) =  -969.996057936     A.U. after    9 cycles
 SCF Done:  E(RB3LYP) =  -969.996057980     A.U. after    9 cycles
 SCF Done:  E(RB3LYP) =  -969.996057945     A.U. after    9 cycles
 SCF Done:  E(RB3LYP) =  -969.996057877     A.U. after    9 cycles
 SCF Done:  E(RB3LYP) =  -969.996057874     A.U. after    8 cycles
 SCF Done:  E(RB3LYP) =  -969.996058070     A.U. after    8 cycles
 SCF Done:  E(RB3LYP) =  -969.996058416     A.U. after    8 cycles
 Optimization completed.
    -- Stationary point found.
 Normal termination of Gaussian 09 at Thu Mar  3 20:39:00 2005.

 ----------------------------------------------------------------------
 #N Geom=AllCheck Guess=TCheck SCRF=Check GenChk RB3LYP/6-31G(d,p) Freq
 ----------------------------------------------------------------------

 4-NO2-Ph-N2-BF4-RB3LYP-6-31G_dp
 -------------------------------
 Redundant internal coordinates taken from checkpoint file:
 Ph-N2-OTf-N2-Ph.chk
 Charge =  0 Multiplicity = 1

                         Standard orientation:
 ---------------------------------------------------------------------
 Center     Atomic      Atomic             Coordinates (Angstroms)
 Number     Number       Type             X           Y           Z
 ---------------------------------------------------------------------
      1          6           0       -1.524341   -0.891359   -0.406387
      2          6           0       -0.227276   -0.395984   -0.494509
      3          6           0       -0.049175    0.960951   -0.196714
      4          6           0       -1.082343    1.834209    0.180804
      5          6           0       -2.363572    1.312359    0.273660
      6          6           0       -2.555189   -0.037278   -0.023934
      7          1           0       -1.740662   -1.930081   -0.621229
      8          1           0        0.635484   -0.994833   -0.774299
      9          1           0       -0.879493    2.875871    0.400506
     10          1           0       -3.207005    1.923564    0.566878
     11          7           0       -3.932633   -0.584311    0.073057
     12          8           0       -4.084557   -1.768921   -0.201788
     13          8           0       -4.817550    0.192459    0.419654
     14          7           0        1.223127    1.518740   -0.300736
     15          7           0        2.192733    2.056289   -0.400651
     16          5           0        3.130529   -0.691861    0.187967
     17          9           0        2.521213   -0.937998   -1.081221
     18          9           0        3.885801   -1.748870    0.602960
     19          9           0        3.886522    0.499895    0.067467
     20          9           0        2.060317   -0.417021    1.093702
 ---------------------------------------------------------------------

 SCF Done:  E(RB3LYP) =  -969.996058416     A.U. after    1 cycles

 The electronic state is 1-A.
 Alpha  occ. eigenvalues --  -24.62091 -24.62090 -24.61981 -24.60263 -19.23013
 Alpha  occ. eigenvalues --  -19.22975 -14.62096 -14.58729 -14.56107 -10.35544
 Alpha  occ. eigenvalues --  -10.32258 -10.30253 -10.28592 -10.28421 -10.27977
 Alpha  occ. eigenvalues --   -6.81133  -1.27415  -1.23920  -1.15365  -1.10291
 Alpha  occ. eigenvalues --   -1.10048  -1.09946  -1.09572  -0.98505  -0.92125
 Alpha  occ. eigenvalues --   -0.84673  -0.82496  -0.71580  -0.71063  -0.64640
 Alpha  occ. eigenvalues --   -0.60580  -0.59680  -0.59167  -0.58008  -0.56136
 Alpha  occ. eigenvalues --   -0.55469  -0.53359  -0.52607  -0.51646  -0.50600
 Alpha  occ. eigenvalues --   -0.49197  -0.46115  -0.45203  -0.44994  -0.44612
 Alpha  occ. eigenvalues --   -0.43575  -0.37008  -0.36490  -0.35713  -0.35522
 Alpha  occ. eigenvalues --   -0.35270  -0.34660  -0.34390  -0.34003  -0.33905
 Alpha  occ. eigenvalues --   -0.33731  -0.31518  -0.30971  -0.30880
 Alpha virt. eigenvalues --   -0.17308  -0.13240  -0.11192  -0.08890  -0.03523
 Alpha virt. eigenvalues --    0.01984   0.07780   0.08512   0.09289   0.12555
 Alpha virt. eigenvalues --    0.12774   0.16823   0.21454   0.21901   0.22239

 Mulliken atomic charges:
              1
     1  C   -0.109764
     2  C   -0.010000
     3  C    0.248210
     4  C   -0.052949
     5  C   -0.097568
     6  C    0.275866
     7  H    0.180546
     8  H    0.210895
     9  H    0.157649
    10  H    0.172757
    11  N    0.401865
    12  O   -0.364711
    13  O   -0.372621
    14  N    0.140740
    15  N   -0.018616
    16  B    0.681881
    17  F   -0.386473
    18  F   -0.302946
    19  F   -0.347335
    20  F   -0.407427
 Sum of Mulliken atomic charges =   0.00000

 Dipole moment (field-independent basis, Debye):
    X=             -7.1746    Y=              6.6781    Z=             -1.5386  Tot=              9.9216
 Quadrupole moment (field-independent basis, Debye-Ang):
   XX=           -128.4033   YY=            -77.2693   ZZ=            -86.5959
   XY=              4.2700   XZ=             -2.3851   YZ=              1.4075

  Exact polarizability: 171.470  10.420 109.851  -7.730   8.717  48.923
 Approx polarizability: 266.231  19.713 212.648 -20.448  24.442  79.173

                     1                      2                      3
                     A                      A                      A
 Frequencies --    26.2514                34.9445                52.7250
 Red. masses --    15.3893                10.6287                10.8499
 Frc consts  --     0.0062                 0.0076                 0.0178
 IR Inten    --     3.8015                 1.9662                 2.9892

                     4                      5                      6
                     A                      A                      A
 Frequencies --    71.6336                89.5023               114.7697
 Red. masses --     6.6958                15.4352                10.2739
 Frc consts  --     0.0202                 0.0729                 0.0797
 IR Inten    --     2.7356                 0.7970                 3.5860

                     7                      8                      9
                     A                      A                      A
 Frequencies --   127.2637               155.9300               221.6020
 Red. masses --    12.9662                11.7515                 9.7793
 Frc consts  --     0.1237                 0.1683                 0.2829
 IR Inten    --     3.2934                30.9689                15.3654

                    10                     11                     12
                     A                      A                      A
 Frequencies --   241.9879               276.1717               338.7196
 Red. masses --     9.8531                 8.3671                13.2294
 Frc consts  --     0.3399                 0.3760                 0.8943
 IR Inten    --     6.7369                15.7241                13.1155

                    13                     14                     15
                     A                      A                      A
 Frequencies --   343.9662               366.2180               413.0807
 Red. masses --    18.1419                18.6772                 3.3794
 Frc consts  --     1.2646                 1.4758                 0.3398
 IR Inten    --     0.6980                 0.5406                 0.5044

                    16                     17                     18
                     A                      A                      A
 Frequencies --   432.2136               492.9174               509.9550
 Red. masses --     5.3493                10.2289                17.8162
 Frc consts  --     0.5888                 1.4643                 2.7298
 IR Inten    --     0.3687                 0.5658                 2.9261

                    19                     20                     21
                     A                      A                      A
 Frequencies --   515.1466               527.3896               539.4220
 Red. masses --    17.6837                17.1155                 5.3145
 Frc consts  --     2.7649                 2.8048                 0.9111
 IR Inten    --     2.8568                26.8933                 5.4434

                    22                     23                     24
                     A                      A                      A
 Frequencies --   554.2635               578.0019               646.4882
 Red. masses --     6.0337                 8.0411                 7.3673
 Frc consts  --     1.0921                 1.5828                 1.8142
 IR Inten    --     2.2269                 1.7860                 6.3231

                    25                     26                     27
                     A                      A                      A
 Frequencies --   671.9709               750.1780               760.7087
 Red. masses --     4.8492                 4.2953                18.6716
 Frc consts  --     1.2901                 1.4242                 6.3660
 IR Inten    --    11.1175                19.4960                12.1298

                    28                     29                     30
                     A                      A                      A
 Frequencies --   777.3856               846.3445               867.5910
 Red. masses --     7.4677                 1.3421                10.0708
 Frc consts  --     2.6590                 0.5664                 4.4663
 IR Inten    --    28.1405                 7.8652                34.5353

                    31                     32                     33
                     A                      A                      A
 Frequencies --   906.6196               986.1351              1015.3824
 Red. masses --     1.4921                 1.3167                 4.6709
 Frc consts  --     0.7226                 0.7544                 2.8373
 IR Inten    --    22.0669                 0.9155               198.2277

                    34                     35                     36
                     A                      A                      A
 Frequencies --  1026.7900              1034.7614              1045.0106
 Red. masses --     2.7406                 2.4737                 3.0471
 Frc consts  --     1.7024                 1.5605                 1.9606
 IR Inten    --    36.1535               101.5419               151.0889

                    37                     38                     39
                     A                      A                      A
 Frequencies --  1116.9263              1131.6759              1141.3669
 Red. masses --     2.9659                 2.6033                 1.6592
 Frc consts  --     2.1800                 1.9644                 1.2735
 IR Inten    --    47.9878                26.4334                19.5079

                    40                     41                     42
                     A                      A                      A
 Frequencies --  1209.5053              1255.8904              1330.8203
 Red. masses --     1.3595                 9.5924                 1.3357
 Frc consts  --     1.1718                 8.9142                 1.3938
 IR Inten    --    39.0410               486.2151                 9.0162

                    43                     44                     45
                     A                      A                      A
 Frequencies --  1379.1178              1396.2638              1454.7120
 Red. masses --     8.1390                14.5574                 3.2193
 Frc consts  --     9.1206                16.7212                 4.0139
 IR Inten    --    42.4474               221.8609                 6.9131

                    46                     47                     48
                     A                      A                      A
 Frequencies --  1505.1897              1619.6555              1632.9856
 Red. masses --     2.0375                 8.8065                 5.6429
 Frc consts  --     2.7198                13.6113                 8.8658
 IR Inten    --     9.1408                70.3409                28.8420

                    49                     50                     51
                     A                      A                      A
 Frequencies --  1677.3532              2369.2140              3184.6892
 Red. masses --    11.6743                13.9592                 1.0986
 Frc consts  --    19.3521                46.1656                 6.5648
 IR Inten    --   129.0617                46.1659               185.0635

                    52                     53                     54
                     A                      A                      A
 Frequencies --  3230.6903              3253.1239              3256.4314
 Red. masses --     1.0926                 1.0927                 1.0942
 Frc consts  --     6.7192                 6.8132                 6.8363
 IR Inten    --     1.1356                11.9100                10.5461

 - Thermochemistry -
 -------------------
 Temperature   298.150 Kelvin.  Pressure   1.00000 Atm.
 Atom     1 has atomic number  6 and mass  12.00000

 Molecular mass:   237.03327 amu.
 Principal axes and moments of inertia in atomic units:
                           1         2         3
     Eigenvalues --  1438.571237478.827348435.78760
           X            1.00000   0.00234  -0.00210
           Y           -0.00230   0.99984   0.01770
           Z            0.00214  -0.01769   0.99984
 This molecule is an asymmetric top.
 Rotational symmetry number  1.
 Warning -- assumption of classical behavior for rotation
           may cause significant error
 Rotational temperatures (Kelvin)      0.06021     0.01158     0.01027
 Rotational constants (GHZ):           1.25454     0.24131     0.21394
 Zero-point vibrational energy     308068.6 (Joules/Mol)
                                   73.63017 (Kcal/Mol)
 Warning -- explicit consideration of  23 degrees of freedom as
           vibrations may cause significant error
 Vibrational temperatures:     37.77    50.28    75.86   103.06   128.77
          (Kelvin)            165.13   183.10   224.35   318.84   348.17
                              397.35   487.34   494.89   526.91   594.33
                              621.86   709.20   733.71   741.18   758.80
                              776.11   797.46   831.61   930.15   966.82
                             1079.34  1094.49  1118.48  1217.70  1248.27
                             1304.42  1418.83  1460.91  1477.32  1488.79
                             1503.54  1607.01  1628.23  1642.17  1740.21
                             1806.94  1914.75  1984.24  2008.91  2093.00
                             2165.63  2330.32  2349.50  2413.33  3408.77
                             4582.05  4648.24  4680.51  4685.27

 Zero-point correction=                           0.117337 (Hartree/Particle)
 Thermal correction to Energy=                    0.131899
 Thermal correction to Enthalpy=                  0.132843
 Thermal correction to Gibbs Free Energy=         0.073257
 Sum of electronic and zero-point Energies=           -969.878721
 Sum of electronic and thermal Energies=              -969.864160
 Sum of electronic and thermal Enthalpies=            -969.863215
 Sum of electronic and thermal Free Energies=         -969.922802

                     E (Thermal)             CV                S
                      KCal/Mol        Cal/Mol-Kelvin    Cal/Mol-Kelvin
 Total                   82.768             51.870            125.410
 Electronic               0.000              0.000              0.000
 Translational            0.889              2.981             42.291
 Rotational               0.889              2.981             32.873
 Vibrational             80.990             45.909             50.246
 Vibration     1          0.593              1.985              6.094
 Vibration     2          0.594              1.983              5.527
 Vibration     3          0.596              1.977              4.712
 Vibration     4          0.598              1.968              4.108
 Vibration     5          0.602              1.957              3.671
 Vibration     6          0.608              1.937              3.187
 Vibration     7          0.611              1.926              2.987
 Vibration     8          0.620              1.896              2.599
 Vibration     9          0.648              1.808              1.946
 Vibration    10          0.658              1.776              1.788
 Vibration    11          0.678              1.717              1.557
 Vibration    12          0.719              1.598              1.218
 Vibration    13          0.723              1.588              1.194
 Vibration    14          0.739              1.542              1.096
 Vibration    15          0.777              1.442              0.916
 Vibration    16          0.793              1.400              0.851
 Vibration    17          0.849              1.266              0.676
 Vibration    18          0.865              1.228              0.634
 Vibration    19          0.870              1.216              0.621
 Vibration    20          0.882              1.189              0.593
 Vibration    21          0.894              1.163              0.567
 Vibration    22          0.910              1.130              0.535
 Vibration    23          0.935              1.079              0.489

 Normal termination of Gaussian 09 at Thu Mar  3 20:43:11 2005.
