 Gaussian 09, Revision B.01,
 Gaussian 09:  EM64L-G09RevB.01 12-Aug-2010

 ------------------------------------------------
 #p Temperature=298.15 opt freq rb3lyp/6-31G(d,p)
 ------------------------------------------------

 -------------------------------
 4-NO2-Ph-N2-OTf-RB3LYP-6-31G_dp
 -------------------------------
 Symbolic Z-matrix:
 Charge =  0 Multiplicity = 1

 SCF Done:  E(RB3LYP) =  -1506.98096018     A.U. after   21 cycles
 SCF Done:  E(RB3LYP) =  -1506.98143996     A.U. after   13 cycles
 SCF Done:  E(RB3LYP) =  -1506.98147481     A.U. after   13 cycles
 SCF Done:  E(RB3LYP) =  -1506.98137047     A.U. after   13 cycles
 SCF Done:  E(RB3LYP) =  -1506.98150503     A.U. after   12 cycles
 SCF Done:  E(RB3LYP) =  -1506.98157805     A.U. after   14 cycles
 SCF Done:  E(RB3LYP) =  -1506.98166178     A.U. after   20 cycles
 SCF Done:  E(RB3LYP) =  -1506.98177586     A.U. after   14 cycles
 SCF Done:  E(RB3LYP) =  -1506.98220342     A.U. after   15 cycles
 SCF Done:  E(RB3LYP) =  -1506.98182957     A.U. after   16 cycles
 SCF Done:  E(RB3LYP) =  -1506.98334468     A.U. after   13 cycles
 SCF Done:  E(RB3LYP) =  -1506.98334557     A.U. after   10 cycles
 SCF Done:  E(RB3LYP) =  -1506.98334733     A.U. after   12 cycles
 SCF Done:  E(RB3LYP) =  -1506.98334749     A.U. after   10 cycles
 SCF Done:  E(RB3LYP) =  -1506.98334789     A.U. after   11 cycles
 SCF Done:  E(RB3LYP) =  -1506.98334809     A.U. after   10 cycles
 SCF Done:  E(RB3LYP) =  -1506.98334813     A.U. after    9 cycles
 SCF Done:  E(RB3LYP) =  -1506.98334813     A.U. after    8 cycles
 SCF Done:  E(RB3LYP) =  -1506.98334812     A.U. after    8 cycles
 Optimization completed.
    -- Stationary point found.
 Normal termination of Gaussian 09 at Fri Mar  4 03:23:04 2005.

 ----------------------------------------------------------------------
 #P Geom=AllCheck Guess=TCheck SCRF=Check GenChk RB3LYP/6-31G(d,p) Freq
 ----------------------------------------------------------------------

 4-NO2-Ph-N2-OTf-RB3LYP-6-31G_dp
 -------------------------------
 Redundant internal coordinates taken from checkpoint file:
 /home/ubuntu/g09/Gau-8140.chk
 Charge =  0 Multiplicity = 1

                         Standard orientation:
 ---------------------------------------------------------------------
 Center     Atomic      Atomic             Coordinates (Angstroms)
 Number     Number       Type             X           Y           Z
 ---------------------------------------------------------------------
      1          6           0        2.353821   -0.921795   -0.298178
      2          6           0        1.124530   -0.304932   -0.494072
      3          6           0        1.081615    1.091596   -0.405066
      4          6           0        2.197808    1.889259   -0.113651
      5          6           0        3.412676    1.252574    0.100877
      6          6           0        3.466000   -0.136397   -0.001831
      7          1           0        2.457830   -1.997587   -0.355801
      8          1           0        0.219861   -0.861695   -0.693938
      9          1           0        2.107100    2.967210   -0.050668
     10          1           0        4.310516    1.808579    0.337590
     11          7           0        4.770236   -0.807380    0.214567
     12          8           0        5.730758   -0.090114    0.478634
     13          8           0        4.795218   -2.029145    0.110515
     14          7           0       -0.121745    1.749945   -0.650591
     15          7           0       -0.965997    2.413236   -0.970373
     16         16           0       -2.647391    0.337663    0.757412
     17          6           0       -2.908774   -1.096404   -0.400904
     18          8           0       -1.178081    0.247923    1.031646
     19          8           0       -3.535637    0.082683    1.888345
     20          8           0       -2.966820    1.524886   -0.090867
     21          9           0       -2.018988   -1.012534   -1.430402
     22          9           0       -2.694689   -2.261176    0.219749
     23          9           0       -4.135665   -1.097734   -0.920483
 ---------------------------------------------------------------------

 SCF Done:  E(RB3LYP) =  -1506.98334812     A.U. after    1 cycles

 The electronic state is 1-A.
 Alpha  occ. eigenvalues --  -89.10002 -24.73895 -24.73249 -24.73247 -19.22743
 Alpha  occ. eigenvalues --  -19.22718 -19.13380 -19.13303 -19.12496 -14.61855
 Alpha  occ. eigenvalues --  -14.57063 -14.54549 -10.43464 -10.35248 -10.31845
 Alpha  occ. eigenvalues --  -10.29714 -10.28758 -10.28340 -10.27954  -8.12276
 Alpha  occ. eigenvalues --   -6.08730  -6.08710  -6.08686  -1.31165  -1.27147
 Alpha  occ. eigenvalues --   -1.22532  -1.22425  -1.22111  -1.10999  -1.10008
 Alpha  occ. eigenvalues --   -0.98167  -0.97983  -0.97167  -0.91575  -0.84495
 Alpha  occ. eigenvalues --   -0.82160  -0.72434  -0.71276  -0.70886  -0.64614
 Alpha  occ. eigenvalues --   -0.63257  -0.60360  -0.59000  -0.58960  -0.58734
 Alpha  occ. eigenvalues --   -0.57961  -0.57676  -0.55345  -0.55097  -0.53365
 Alpha  occ. eigenvalues --   -0.52872  -0.51831  -0.51252  -0.49132  -0.46787
 Alpha  occ. eigenvalues --   -0.46542  -0.46025  -0.44790  -0.44425  -0.44074
 Alpha  occ. eigenvalues --   -0.43741  -0.42595  -0.42480  -0.40630  -0.35478
 Alpha  occ. eigenvalues --   -0.35345  -0.35146  -0.34095  -0.33667  -0.32815
 Alpha  occ. eigenvalues --   -0.32759  -0.29977  -0.29757  -0.28785  -0.26137
 Alpha virt. eigenvalues --   -0.16615  -0.12549  -0.10794  -0.08777  -0.03323
 Alpha virt. eigenvalues --    0.02293   0.07982   0.08438   0.09231   0.10442
 Alpha virt. eigenvalues --    0.11107   0.11198   0.11390   0.12875   0.13124

 Mulliken atomic charges:
              1
     1  C   -0.105090
     2  C   -0.011827
     3  C    0.270504
     4  C   -0.051224
     5  C   -0.098077
     6  C    0.272244
     7  H    0.176351
     8  H    0.175243
     9  H    0.157612
    10  H    0.171729
    11  N    0.400377
    12  O   -0.374157
    13  O   -0.369166
    14  N    0.114089
    15  N   -0.022159
    16  S    1.151095
    17  C    0.568824
    18  O   -0.624150
    19  O   -0.495036
    20  O   -0.560784
    21  F   -0.275259
    22  F   -0.240373
    23  F   -0.230768
 Sum of Mulliken atomic charges =   0.00000

 Dipole moment (field-independent basis, Debye):
    X=              7.6525    Y=              3.0066    Z=             -4.3787  Tot=              9.3152
 Quadrupole moment (field-independent basis, Debye-Ang):
   XX=           -143.7445   YY=           -101.5400   ZZ=           -114.5003
   XY=             15.4407   XZ=              5.4970   YZ=             -0.5093

  Exact polarizability: 237.078  -5.661 134.725  -4.312  -5.186  76.964
 Approx polarizability: 360.791  -9.712 263.782   0.109 -17.540 137.515

                     1                      2                      3
                     A                      A                      A
 Frequencies --    20.9131                21.9397                32.4305
 Red. masses --     8.2383                12.9534                13.5749
 Frc consts  --     0.0021                 0.0037                 0.0084
 IR Inten    --     0.9129                 4.8224                 0.6136

                     4                      5                      6
                     A                      A                      A
 Frequencies --    49.4688                55.3943                66.7558
 Red. masses --    13.9566                16.3214                 6.1175
 Frc consts  --     0.0201                 0.0295                 0.0161
 IR Inten    --     2.7028                 1.8850                 3.2642

                     7                      8                      9
                     A                      A                      A
 Frequencies --   112.2347               115.4740               153.3612
 Red. masses --    11.9753                10.2763                12.1641
 Frc consts  --     0.0889                 0.0807                 0.1686
 IR Inten    --     4.0933                 2.9601                21.0094

                    10                     11                     12
                     A                      A                      A
 Frequencies --   195.2152               206.9120               214.9007
 Red. masses --    15.9569                16.8310                10.4484
 Frc consts  --     0.3583                 0.4246                 0.2843
 IR Inten    --     1.7591                 2.3489                19.4179

                    13                     14                     15
                     A                      A                      A
 Frequencies --   255.2128               276.9125               302.0038
 Red. masses --     8.6556                10.1582                17.6823
 Frc consts  --     0.3322                 0.4589                 0.9502
 IR Inten    --     1.4234                 6.2134                 0.7627

                    16                     17                     18
                     A                      A                      A
 Frequencies --   332.0327               344.1214               349.9955
 Red. masses --    17.1301                16.5589                11.5237
 Frc consts  --     1.1127                 1.1553                 0.8317
 IR Inten    --     1.2990                19.7263                 3.3821

                    19                     20                     21
                     A                      A                      A
 Frequencies --   401.7782               417.2198               472.3364
 Red. masses --     7.2249                 3.1885                 5.9595
 Frc consts  --     0.6872                 0.3270                 0.7834
 IR Inten    --    18.3790                 1.1418                 8.7650

                    22                     23                     24
                     A                      A                      A
 Frequencies --   493.4405               502.5712               525.3248
 Red. masses --    17.3481                17.5966                 5.7538
 Frc consts  --     2.4887                 2.6186                 0.9355
 IR Inten    --    15.3641                40.6326                10.0509

                    25                     26                     27
                     A                      A                      A
 Frequencies --   553.2113               558.2114               560.5072
 Red. masses --     6.6249                14.9382                15.7566
 Frc consts  --     1.1946                 2.7425                 2.9166
 IR Inten    --     1.5954                 5.2711                16.0201

                    28                     29                     30
                     A                      A                      A
 Frequencies --   583.3842               613.5492               644.4250
 Red. masses --     8.2334                20.1079                 7.3440
 Frc consts  --     1.6510                 4.4598                 1.7969
 IR Inten    --     8.7666               152.6531                 3.8857

                    31                     32                     33
                     A                      A                      A
 Frequencies --   674.5131               750.5241               750.5889
 Red. masses --     4.4228                 4.6323                15.7324
 Frc consts  --     1.1856                 1.5374                 5.2222
 IR Inten    --    13.1298                20.0489                 1.3067

                    34                     35                     36
                     A                      A                      A
 Frequencies --   780.0230               841.8127               868.7049
 Red. masses --     7.3906                 1.2660                10.0771
 Frc consts  --     2.6494                 0.5286                 4.4805
 IR Inten    --    21.1464                 2.8487                55.0546

                    37                     38                     39
                     A                      A                      A
 Frequencies --   884.9824               982.5638               986.9201
 Red. masses --     1.6261                15.5209                 1.3234
 Frc consts  --     0.7503                 8.8286                 0.7595
 IR Inten    --    26.7042               196.1809                 0.5613

                    40                     41                     42
                     A                      A                      A
 Frequencies --  1004.7022              1028.5846              1119.0267
 Red. masses --     1.3384                 2.8892                 3.2920
 Frc consts  --     0.7960                 1.8010                 2.4288
 IR Inten    --     3.5197                 5.1127                88.2602

                    43                     44                     45
                     A                      A                      A
 Frequencies --  1124.1256              1132.5253              1145.8210
 Red. masses --     9.2639                 1.3314                 3.8563
 Frc consts  --     6.8972                 1.0061                 2.9830
 IR Inten    --    56.7864                 7.6014                15.9904

                    46                     47                     48
                     A                      A                      A
 Frequencies --  1159.6386              1205.3645              1234.0113
 Red. masses --     9.3123                 1.4103                12.6935
 Frc consts  --     7.3782                 1.2073                11.3885
 IR Inten    --   132.6576                 4.0906               101.8373

                    49                     50                     51
                     A                      A                      A
 Frequencies --  1257.6986              1294.1970              1324.0007
 Red. masses --    13.2448                18.5698                 1.3056
 Frc consts  --    12.3438                18.3256                 1.3484
 IR Inten    --   241.9653               455.7117                 1.9801

                    52                     53                     54
                     A                      A                      A
 Frequencies --  1375.1252              1395.2030              1451.0773
 Red. masses --     9.1721                14.6072                 3.3452
 Frc consts  --    10.2189                16.7529                 4.1500
 IR Inten    --    33.0257               290.2454                 8.3455

                    55                     56                     57
                     A                      A                      A
 Frequencies --  1508.6717              1622.6674              1633.2639
 Red. masses --     2.1445                 9.1528                 5.7561
 Frc consts  --     2.8759                14.1992                 9.0468
 IR Inten    --    10.6812                67.9798                 8.3735

                    58                     59                     60
                     A                      A                      A
 Frequencies --  1677.0518              2305.9773              3232.1573
 Red. masses --    11.3350                13.9608                 1.0924
 Frc consts  --    18.7829                43.7391                 6.7237
 IR Inten    --   127.3521               284.9709                 1.1769

                    61                     62                     63
                     A                      A                      A
 Frequencies --  3252.7789              3254.6351              3272.3877
 Red. masses --     1.0916                 1.0942                 1.0961
 Frc consts  --     6.8052                 6.8291                 6.9155
 IR Inten    --     9.6146                11.8290                25.6587

 - Thermochemistry -
 -------------------
 Temperature   298.150 Kelvin.  Pressure   1.00000 Atm.
 Atom     1 has atomic number  6 and mass  12.00000

 Molecular mass:   298.98238 amu.
 Principal axes and moments of inertia in atomic units:
                           1         2         3
     Eigenvalues --  2430.56037********************
           X            1.00000  -0.00144  -0.00211
           Y            0.00144   1.00000  -0.00047
           Z            0.00211   0.00046   1.00000
 This molecule is an asymmetric top.
 Rotational symmetry number  1.
 Warning -- assumption of classical behavior for rotation
           may cause significant error
 Rotational temperatures (Kelvin)      0.03564     0.00782     0.00709
 Rotational constants (GHZ):           0.74252     0.16299     0.14779
 Zero-point vibrational energy     340711.8 (Joules/Mol)
                                   81.43207 (Kcal/Mol)
 Warning -- explicit consideration of  29 degrees of freedom as
           vibrations may cause significant error
 Vibrational temperatures:     30.09    31.57    46.66    71.17    79.70
          (Kelvin)             96.05   161.48   166.14   220.65   280.87
                              297.70   309.19   367.19   398.41   434.52
                              477.72   495.11   503.56   578.07   600.29
                              679.59   709.95   723.09   755.82   795.95
                              803.14   806.44   839.36   882.76   927.18
                              970.47  1079.84  1079.93  1122.28  1211.18
                             1249.87  1273.29  1413.69  1419.96  1445.54
                             1479.90  1610.03  1617.36  1629.45  1648.58
                             1668.46  1734.25  1775.46  1809.55  1862.06
                             1904.94  1978.50  2007.38  2087.77  2170.64
                             2334.65  2349.90  2412.90  3317.78  4650.35
                             4680.02  4682.69  4708.23

 Zero-point correction=                           0.129770 (Hartree/Particle)
 Thermal correction to Energy=                    0.147349
 Thermal correction to Enthalpy=                  0.148294
 Thermal correction to Gibbs Free Energy=         0.080410
 Sum of electronic and zero-point Energies=          -1506.853578
 Sum of electronic and thermal Energies=             -1506.835999
 Sum of electronic and thermal Enthalpies=           -1506.835054
 Sum of electronic and thermal Free Energies=        -1506.902939

                     E (Thermal)             CV                S
                      KCal/Mol        Cal/Mol-Kelvin    Cal/Mol-Kelvin
 Total                   92.463             62.127            142.874
 Electronic               0.000              0.000              0.000
 Translational            0.889              2.981             42.983
 Rotational               0.889              2.981             34.152
 Vibrational             90.686             56.166             65.740
 Vibration     1          0.593              1.986              6.546
 Vibration     2          0.593              1.985              6.450
 Vibration     3          0.594              1.983              5.675
 Vibration     4          0.595              1.978              4.839
 Vibration     5          0.596              1.975              4.615
 Vibration     6          0.598              1.970              4.247
 Vibration     7          0.607              1.939              3.230
 Vibration     8          0.608              1.937              3.175
 Vibration     9          0.619              1.899              2.630
 Vibration    10          0.636              1.847              2.178
 Vibration    11          0.641              1.830              2.071
 Vibration    12          0.645              1.818              2.002
 Vibration    13          0.666              1.754              1.694
 Vibration    14          0.678              1.716              1.553
 Vibration    15          0.694              1.670              1.406
 Vibration    16          0.714              1.612              1.250
 Vibration    17          0.723              1.587              1.193
 Vibration    18          0.727              1.575              1.166
 Vibration    19          0.767              1.466              0.956
 Vibration    20          0.780              1.433              0.901
 Vibration    21          0.829              1.311              0.731
 Vibration    22          0.849              1.265              0.675
 Vibration    23          0.858              1.244              0.652
 Vibration    24          0.880              1.194              0.598
 Vibration    25          0.909              1.133              0.538
 Vibration    26          0.914              1.122              0.527
 Vibration    27          0.916              1.117              0.523
 Vibration    28          0.940              1.067              0.479
 Vibration    29          0.973              1.003              0.427

 Optimization completed.
    -- Stationary point found.
 Normal termination of Gaussian 09 at Fri Mar  4 03:30:00 2005.
