 Gaussian 09, Revision B.01,
 Gaussian 09:  EM64L-G09RevB.01 12-Aug-2010

 ----------------------------
 # opt freq rb3lyp/6-31G(d,p)
 ----------------------------

 ----------------------
 Ph-N2+-RB3LYP-6-31G_dp
 ----------------------
 Symbolic Z-matrix:
 Charge =  1 Multiplicity = 1

 SCF Done:  E(RB3LYP) =  -340.852687839     A.U. after   17 cycles
 SCF Done:  E(RB3LYP) =  -340.854953315     A.U. after   17 cycles
 SCF Done:  E(RB3LYP) =  -340.854998141     A.U. after    9 cycles
 SCF Done:  E(RB3LYP) =  -340.855003533     A.U. after   14 cycles
 SCF Done:  E(RB3LYP) =  -340.855003998     A.U. after   14 cycles
 Optimization completed.
    -- Stationary point found.
 Normal termination of Gaussian 09 at Thu Apr  7 02:42:21 2005.

 ----------------------------------------------------------------------
 #N Geom=AllCheck Guess=TCheck SCRF=Check GenChk RB3LYP/6-31G(d,p) Freq
 ----------------------------------------------------------------------

 Ph-N2+-RB3LYP-6-31G_dp
 ----------------------
 Redundant internal coordinates taken from checkpoint file:
 /home/ubuntu/g09/Gau-31879.chk
 Charge =  1 Multiplicity = 1

                         Standard orientation:
 ---------------------------------------------------------------------
 Center     Atomic      Atomic             Coordinates (Angstroms)
 Number     Number       Type             X           Y           Z
 ---------------------------------------------------------------------
      1          6           0        1.482499    1.223406    0.000004
      2          6           0        0.096630    1.246383   -0.000013
      3          6           0       -0.564502   -0.000002   -0.000004
      4          6           0        0.096638   -1.246382   -0.000004
      5          6           0        1.482507   -1.223404   -0.000002
      6          6           0        2.168466    0.000000    0.000005
      7          1           0        2.031699    2.158310    0.000011
      8          1           0       -0.464004    2.174423   -0.000004
      9          7           0       -1.939629    0.000001    0.000001
     10          7           0       -3.055023   -0.000005    0.000008
     11          1           0        3.253743    0.000007    0.000014
     12          1           0        2.031711   -2.158307    0.000008
     13          1           0       -0.464012   -2.174412   -0.000008
 ---------------------------------------------------------------------

 SCF Done:  E(RB3LYP) =  -340.855003998     A.U. after    1 cycles

 The electronic state is 1-A.
 Alpha  occ. eigenvalues --  -14.73519 -14.69792 -10.47916 -10.41785 -10.41785
 Alpha  occ. eigenvalues --  -10.39934 -10.39170 -10.39169  -1.38144  -1.11290
 Alpha  occ. eigenvalues --   -1.02482  -0.96131  -0.89730  -0.82549  -0.77192
 Alpha  occ. eigenvalues --   -0.73327  -0.72411  -0.70752  -0.68919  -0.64952
 Alpha  occ. eigenvalues --   -0.63533  -0.63014  -0.57431  -0.56107  -0.55035
 Alpha  occ. eigenvalues --   -0.46963  -0.45869
 Alpha virt. eigenvalues --   -0.29622  -0.28142  -0.20276  -0.17516  -0.09885
 Alpha virt. eigenvalues --   -0.04048  -0.03268  -0.02612  -0.00515   0.01834
 Alpha virt. eigenvalues --    0.01877   0.06648   0.10636   0.12362   0.14818

 Mulliken atomic charges:
              1
     1  C   -0.081257
     2  C   -0.026385
     3  C    0.243444
     4  C   -0.026381
     5  C   -0.081257
     6  C   -0.036193
     7  H    0.176731
     8  H    0.182732
     9  N    0.130245
    10  N   -0.018583
    11  H    0.177443
    12  H    0.176732
    13  H    0.182731
 Sum of Mulliken atomic charges =   1.00000

 Dipole moment (field-independent basis, Debye):
    X=             -0.5180    Y=              0.0000    Z=              0.0000  Tot=              0.5180
 Quadrupole moment (field-independent basis, Debye-Ang):
   XX=            -22.4918   YY=            -31.0262   ZZ=            -44.9627
   XY=              0.0000   XZ=              0.0001   YZ=              0.0000

  Exact polarizability: 118.383   0.000  71.517   0.000   0.000  25.500
 Approx polarizability: 235.891   0.000 122.856   0.000   0.000  38.810

                     1                      2                      3
                     A                      A                      A
 Frequencies --   146.5290               179.0516               390.6117
 Red. masses --     5.6683                 6.8391                 4.1341
 Frc consts  --     0.0717                 0.1292                 0.3716
 IR Inten    --     0.0801                 0.5630                 0.0015

                     4                      5                      6
                     A                      A                      A
 Frequencies --   393.1178               462.5517               549.5278
 Red. masses --     2.8946                 8.5665                 7.9705
 Frc consts  --     0.2636                 1.0799                 1.4181
 IR Inten    --     0.0000                 5.8622                 0.0091

                     7                      8                      9
                     A                      A                      A
 Frequencies --   556.7567               626.5207               661.3749
 Red. masses --     6.2200                 7.0451                 2.4718
 Frc consts  --     1.1360                 1.6293                 0.6370
 IR Inten    --    12.8804                 0.2361                19.3196

                    10                     11                     12
                     A                      A                      A
 Frequencies --   770.7911               771.6878               835.7890
 Red. masses --     1.4117                 6.2050                 1.2552
 Frc consts  --     0.4942                 2.1771                 0.5166
 IR Inten    --    55.3125                 0.0322                 0.0000

                    13                     14                     15
                     A                      A                      A
 Frequencies --   964.5438              1001.0645              1009.1757
 Red. masses --     1.2969                 1.3533                 6.1695
 Frc consts  --     0.7109                 0.7990                 3.7020
 IR Inten    --     1.4694                 0.0000                 4.5429

                    16                     17                     18
                     A                      A                      A
 Frequencies --  1038.1717              1041.3772              1121.4248
 Red. masses --     2.2907                 1.3679                 1.5173
 Frc consts  --     1.4546                 0.8740                 1.1242
 IR Inten    --     0.1368                 0.2399                 4.1985

                    19                     20                     21
                     A                      A                      A
 Frequencies --  1141.2558              1205.9274              1216.4766
 Red. masses --     3.6186                 1.0951                 1.2625
 Frc consts  --     2.7769                 0.9383                 1.1008
 IR Inten    --   135.9345                 1.2626                 1.1831

                    22                     23                     24
                     A                      A                      A
 Frequencies --  1353.7888              1384.0276              1495.4875
 Red. masses --     1.4275                 5.7038                 2.3617
 Frc consts  --     1.5415                 6.4373                 3.1120
 IR Inten    --     0.0950                21.9959                25.0143

                    25                     26                     27
                     A                      A                      A
 Frequencies --  1496.9569              1611.1567              1618.9280
 Red. masses --     1.9087                 4.9705                 5.0477
 Frc consts  --     2.5201                 7.6019                 7.7947
 IR Inten    --     0.9983                 0.4526               114.0568

                    28                     29                     30
                     A                      A                      A
 Frequencies --  2350.2867              3217.6215              3226.2022
 Red. masses --    13.9351                 1.0897                 1.0904
 Frc consts  --    45.3527                 6.6473                 6.6867
 IR Inten    --   277.6444                 0.1572                 0.4152

                    31                     32                     33
                     A                      A                      A
 Frequencies --  3228.7089              3236.3063              3238.5660
 Red. masses --     1.0935                 1.0973                 1.0997
 Frc consts  --     6.7160                 6.7711                 6.7957
 IR Inten    --     6.0572                13.0101                 0.1038

 - Thermochemistry -
 -------------------
 Temperature   298.150 Kelvin.  Pressure   1.00000 Atm.
 Atom     1 has atomic number  6 and mass  12.00000

 Molecular mass:   105.04527 amu.
 Principal axes and moments of inertia in atomic units:
                           1         2         3
     Eigenvalues --   328.981521127.159851456.14137
           X            1.00000   0.00000   0.00000
           Y            0.00000   1.00000   0.00000
           Z            0.00000   0.00000   1.00000
 This molecule is an asymmetric top.
 Rotational symmetry number  1.
 Rotational temperatures (Kelvin)      0.26328     0.07684     0.05948
 Rotational constants (GHZ):           5.48584     1.60114     1.23940
 Zero-point vibrational energy     260437.6 (Joules/Mol)
                                   62.24608 (Kcal/Mol)
 Warning -- explicit consideration of   7 degrees of freedom as
           vibrations may cause significant error
 Vibrational temperatures:    210.82   257.61   562.00   565.61   665.51
          (Kelvin)            790.65   801.05   901.42   951.57  1109.00
                             1110.29  1202.51  1387.76  1440.31  1451.98
                             1493.70  1498.31  1613.48  1642.01  1735.06
                             1750.24  1947.80  1991.30  2151.67  2153.78
                             2318.09  2329.27  3381.53  4629.43  4641.78
                             4645.39  4656.32  4659.57

 Zero-point correction=                           0.099195 (Hartree/Particle)
 Thermal correction to Energy=                    0.105340
 Thermal correction to Enthalpy=                  0.106284
 Thermal correction to Gibbs Free Energy=         0.068917
 Sum of electronic and zero-point Energies=           -340.755809
 Sum of electronic and thermal Energies=              -340.749664
 Sum of electronic and thermal Enthalpies=            -340.748720
 Sum of electronic and thermal Free Energies=         -340.786087

                     E (Thermal)             CV                S
                      KCal/Mol        Cal/Mol-Kelvin    Cal/Mol-Kelvin
 Total                   66.102             23.410             78.646
 Electronic               0.000              0.000              0.000
 Translational            0.889              2.981             39.865
 Rotational               0.889              2.981             27.781
 Vibrational             64.324             17.448             11.000
 Vibration     1          0.617              1.906              2.717
 Vibration     2          0.629              1.868              2.338
 Vibration     3          0.758              1.490              0.998
 Vibration     4          0.760              1.485              0.988
 Vibration     5          0.820              1.333              0.759
 Vibration     6          0.905              1.141              0.545
 Vibration     7          0.912              1.125              0.530

 Optimization completed.
    -- Stationary point found.
 Normal termination of Gaussian 09 at Thu Apr  7 02:43:09 2005.
