 Gaussian 09, Revision B.01,
 Gaussian 09:  EM64L-G09RevB.01 12-Aug-2010

 ----------------------------
 # opt freq rb3lyp/6-31G(d,p)
 ----------------------------

 -------------------------
 Ph-N2-OTf-RB3LYP-6-31G_dp
 -------------------------
 Symbolic Z-matrix:
 Charge =  0 Multiplicity = 1

 SCF Done:  E(RB3LYP) =  -1301.97928998     A.U. after   25 cycles
 SCF Done:  E(RB3LYP) =  -1302.14712660     A.U. after   18 cycles
 SCF Done:  E(RB3LYP) =  -1302.31776102     A.U. after   16 cycles
 SCF Done:  E(RB3LYP) =  -1302.34903759     A.U. after   16 cycles
 SCF Done:  E(RB3LYP) =  -1302.41642940     A.U. after   15 cycles
 SCF Done:  E(RB3LYP) =  -1302.46068396     A.U. after   15 cycles
 SCF Done:  E(RB3LYP) =  -1302.46964698     A.U. after   14 cycles
 SCF Done:  E(RB3LYP) =  -1302.47216299     A.U. after   14 cycles
 SCF Done:  E(RB3LYP) =  -1302.45584826     A.U. after   18 cycles
 SCF Done:  E(RB3LYP) =  -1302.47261657     A.U. after   18 cycles
 SCF Done:  E(RB3LYP) =  -1302.49204631     A.U. after   12 cycles
 SCF Done:  E(RB3LYP) =  -1302.49204886     A.U. after   10 cycles
 SCF Done:  E(RB3LYP) =  -1302.49205230     A.U. after   12 cycles
 SCF Done:  E(RB3LYP) =  -1302.49205546     A.U. after   10 cycles
 SCF Done:  E(RB3LYP) =  -1302.49205794     A.U. after   12 cycles
 SCF Done:  E(RB3LYP) =  -1302.49205945     A.U. after   10 cycles
 SCF Done:  E(RB3LYP) =  -1302.49206036     A.U. after   10 cycles
 SCF Done:  E(RB3LYP) =  -1302.49206101     A.U. after    9 cycles
 SCF Done:  E(RB3LYP) =  -1302.49206153     A.U. after    8 cycles
 Optimization completed.
    -- Stationary point found.
 Normal termination of Gaussian 09 at Thu Apr  7 21:49:26 2005.

 ----------------------------------------------------------------------
 #N Geom=AllCheck Guess=TCheck SCRF=Check GenChk RB3LYP/6-31G(d,p) Freq
 ----------------------------------------------------------------------

 Ph-N2-OTf-RB3LYP-6-31G_dp
 -------------------------
 Redundant internal coordinates taken from checkpoint file:
 /home/ubuntu/g09/Gau-7438.chk
 Charge =  0 Multiplicity = 1

                         Standard orientation:
 ---------------------------------------------------------------------
 Center     Atomic      Atomic             Coordinates (Angstroms)
 Number     Number       Type             X           Y           Z
 ---------------------------------------------------------------------
      1          6           0        4.402884   -0.035905    0.436102
      2          6           0        3.430466    0.934042    0.645924
      3          6           0        2.177200    0.751596    0.047400
      4          6           0        1.858119   -0.358550   -0.752478
      5          6           0        2.852977   -1.311575   -0.941822
      6          6           0        4.112777   -1.152759   -0.355014
      7          1           0        5.382729    0.076653    0.886851
      8          1           0        3.619228    1.811111    1.254510
      9          1           0        0.867263   -0.442044   -1.183207
     10          1           0        2.641038   -2.183616   -1.551039
     11          7           0        1.207755    1.732149    0.266959
     12          7           0        0.164568    2.171697    0.153814
     13         16           0       -2.237577    0.465392   -0.421208
     14          6           0       -1.649564   -1.000209    0.568073
     15          8           0       -2.706966    1.422536    0.583350
     16          8           0       -3.175739   -0.082858   -1.399725
     17          8           0       -0.912226    0.887097   -1.074915
     18          9           0       -0.657033   -0.617979    1.405942
     19          9           0       -2.633533   -1.529735    1.293714
     20          9           0       -1.147397   -1.952529   -0.239290
     21          1           0        4.876673   -1.907147   -0.515299
 ---------------------------------------------------------------------

 SCF Done:  E(RB3LYP) =  -1302.49206153     A.U. after    1 cycles

 The electronic state is 1-A.
 Alpha  occ. eigenvalues --  -89.09598 -24.73257 -24.73082 -24.72938 -19.14643
 Alpha  occ. eigenvalues --  -19.11988 -19.11795 -14.52652 -14.52502 -10.43099
 Alpha  occ. eigenvalues --  -10.32097 -10.27153 -10.26233 -10.26160 -10.25733
 Alpha  occ. eigenvalues --  -10.25388  -8.11889  -6.08383  -6.08297  -6.08276
 Alpha  occ. eigenvalues --   -1.30814  -1.22216  -1.22023  -1.18364  -1.10399
 Alpha  occ. eigenvalues --   -0.97478  -0.97066  -0.94541  -0.86855  -0.81751
 Alpha  occ. eigenvalues --   -0.74822  -0.72032  -0.68025  -0.63116  -0.62808
 Alpha  occ. eigenvalues --   -0.58594  -0.58465  -0.57360  -0.55509  -0.54441
 Alpha  occ. eigenvalues --   -0.53652  -0.52057  -0.49865  -0.49280  -0.48424
 Alpha  occ. eigenvalues --   -0.46437  -0.46070  -0.44838  -0.43599  -0.43462
 Alpha  occ. eigenvalues --   -0.42977  -0.42765  -0.42308  -0.42041  -0.40808
 Alpha  occ. eigenvalues --   -0.40297  -0.32896  -0.32426  -0.32062  -0.31826
 Alpha  occ. eigenvalues --   -0.29994  -0.29005  -0.28201  -0.25474
 Alpha virt. eigenvalues --   -0.13485  -0.11138  -0.06577  -0.02764   0.04419
 Alpha virt. eigenvalues --    0.09487   0.09986   0.10455   0.10678   0.11310
 Alpha virt. eigenvalues --    0.11767   0.12191   0.13402   0.15080   0.17922

 Mulliken atomic charges:
              1
     1  C   -0.091961
     2  C   -0.066119
     3  C    0.228655
     4  C   -0.016637
     5  C   -0.103197
     6  C   -0.053367
     7  H    0.126353
     8  H    0.140111
     9  H    0.189386
    10  H    0.136074
    11  N    0.018031
    12  N    0.020190
    13  S    1.180949
    14  C    0.562646
    15  O   -0.537755
    16  O   -0.502879
    17  O   -0.598930
    18  F   -0.273801
    19  F   -0.231334
    20  F   -0.253009
    21  H    0.126592
 Sum of Mulliken atomic charges =   0.00000

 Dipole moment (field-independent basis, Debye):
    X=             12.9782    Y=             -0.9076    Z=              1.4484  Tot=             13.0903
 Quadrupole moment (field-independent basis, Debye-Ang):
   XX=            -86.5286   YY=            -89.8295   ZZ=            -97.3742
   XY=              3.7095   XZ=             -1.9875   YZ=              3.4718

  Exact polarizability: 186.437 -13.304 108.381  19.195  21.471  77.117
 Approx polarizability: 281.568 -22.092 199.231  45.024  56.587 143.955

                     1                      2                      3
                     A                      A                      A
 Frequencies --    16.9887                21.4391                45.0164
 Red. masses --     9.9725                 6.6844                 8.7933
 Frc consts  --     0.0017                 0.0018                 0.0105
 IR Inten    --     0.1894                 0.0211                 0.0425

                     4                      5                      6
                     A                      A                      A
 Frequencies --    61.7254                81.1906               112.9774
 Red. masses --     8.4425                 8.7481                 9.6851
 Frc consts  --     0.0190                 0.0340                 0.0728
 IR Inten    --     1.0179                 2.9987                12.7697

                     7                      8                      9
                     A                      A                      A
 Frequencies --   167.9474               176.6984               192.5904
 Red. masses --     7.4831                 7.0177                17.1536
 Frc consts  --     0.1244                 0.1291                 0.3749
 IR Inten    --    69.0957                 4.6207                 3.7514

                    10                     11                     12
                     A                      A                      A
 Frequencies --   203.4564               283.2201               304.6960
 Red. masses --    15.5498                11.4060                15.1862
 Frc consts  --     0.3792                 0.5391                 0.8307
 IR Inten    --    33.5666                93.6850                 8.1794

                    13                     14                     15
                     A                      A                      A
 Frequencies --   332.2591               345.8721               399.7173
 Red. masses --    17.0125                16.7333                 4.5785
 Frc consts  --     1.1066                 1.1794                 0.4310
 IR Inten    --     1.1170                63.8182                 0.0754

                    16                     17                     18
                     A                      A                      A
 Frequencies --   413.0912               469.7587               492.8996
 Red. masses --     3.0451                 8.9824                16.8018
 Frc consts  --     0.3062                 1.1679                 2.4050
 IR Inten    --     0.0927                16.9381                 5.2795

                    19                     20                     21
                     A                      A                      A
 Frequencies --   506.4040               519.4501               552.0269
 Red. masses --    14.2389                 9.3154                 8.2404
 Frc consts  --     2.1514                 1.4809                 1.4795
 IR Inten    --    84.3311               113.8294                 7.1923

                    22                     23                     24
                     A                      A                      A
 Frequencies --   559.6948               567.9324               608.5748
 Red. masses --    15.8532                 8.3266                20.3813
 Frc consts  --     2.9260                 1.5824                 4.4474
 IR Inten    --     4.6758                35.4110               129.0259

                    25                     26                     27
                     A                      A                      A
 Frequencies --   627.7359               683.6802               749.8677
 Red. masses --     6.6749                 2.5055                18.2563
 Frc consts  --     1.5497                 0.6900                 6.0483
 IR Inten    --     6.1872                21.5400                 3.6629

                    28                     29                     30
                     A                      A                      A
 Frequencies --   778.4476               781.0437               858.6274
 Red. masses --     1.5808                 4.6990                 1.2459
 Frc consts  --     0.5644                 1.6889                 0.5412
 IR Inten    --    37.9768                14.6495                 0.3116

                    31                     32                     33
                     A                      A                      A
 Frequencies --   926.3601               964.5348               998.4804
 Red. masses --    13.4956                 1.3430                 1.3553
 Frc consts  --     6.8234                 0.7362                 0.7961
 IR Inten    --   262.6917                15.0534                 5.0577

                    34                     35                     36
                     A                      A                      A
 Frequencies --  1014.9324              1024.6966              1047.0848
 Red. masses --     5.9956                 1.3181                 2.2152
 Frc consts  --     3.6388                 0.8154                 1.4310
 IR Inten    --     1.7513                 0.6699                 4.0093

                    37                     38                     39
                     A                      A                      A
 Frequencies --  1111.3883              1142.6880              1147.9030
 Red. masses --     1.5086                 6.5937                 4.4920
 Frc consts  --     1.0979                 5.0726                 3.4874
 IR Inten    --     4.1458               464.3253                39.7099

                    40                     41                     42
                     A                      A                      A
 Frequencies --  1182.8669              1196.1984              1208.8041
 Red. masses --    12.1120                 1.1124                 2.0083
 Frc consts  --     9.9848                 0.9378                 1.7290
 IR Inten    --   117.8676                 0.6421                23.3097

                    43                     44                     45
                     A                      A                      A
 Frequencies --  1216.5872              1258.3918              1326.3015
 Red. masses --     2.8548                13.2104                20.5316
 Frc consts  --     2.4895                12.3254                21.2793
 IR Inten    --    47.2059               333.1061               196.3622

                    46                     47                     48
                     A                      A                      A
 Frequencies --  1349.7469              1372.1637              1495.1243
 Red. masses --     1.5965                 3.8774                 2.2859
 Frc consts  --     1.7136                 4.3013                 3.0107
 IR Inten    --    10.1295                22.3984                 3.4630

                    49                     50                     51
                     A                      A                      A
 Frequencies --  1514.4121              1625.1374              1638.4936
 Red. masses --     2.0515                 5.3296                 5.5025
 Frc consts  --     2.7722                 8.2932                 8.7036
 IR Inten    --     4.7382                19.3273                18.7206

                    52                     53                     54
                     A                      A                      A
 Frequencies --  2157.7731              3202.6359              3216.4110
 Red. masses --    13.9306                 1.0879                 1.0904
 Frc consts  --    38.2148                 6.5745                 6.6463
 IR Inten    --   313.0574                 1.6946                 4.5002

                    55                     56                     57
                     A                      A                      A
 Frequencies --  3221.4160              3231.1337              3236.5704
 Red. masses --     1.0942                 1.0974                 1.0971
 Frc consts  --     6.6902                 6.7504                 6.7710
 IR Inten    --     1.0506                 0.8128                36.1619

 - Thermochemistry -
 -------------------
 Temperature   298.150 Kelvin.  Pressure   1.00000 Atm.
 Atom     1 has atomic number  6 and mass  12.00000

 Molecular mass:   253.99730 amu.
 Principal axes and moments of inertia in atomic units:
                           1         2         3
     Eigenvalues --  1901.999176015.396646711.86562
           X            0.99991  -0.01325   0.00351
           Y            0.01306   0.99873   0.04857
           Z           -0.00414  -0.04852   0.99881
 This molecule is an asymmetric top.
 Rotational symmetry number  1.
 Warning -- assumption of classical behavior for rotation
           may cause significant error
 Rotational temperatures (Kelvin)      0.04554     0.01440     0.01290
 Rotational constants (GHZ):           0.94887     0.30002     0.26889
 Zero-point vibrational energy     334615.0 (Joules/Mol)
                                   79.97491 (Kcal/Mol)
 Warning -- explicit consideration of  24 degrees of freedom as
           vibrations may cause significant error
 Vibrational temperatures:     24.44    30.85    64.77    88.81   116.81
          (Kelvin)            162.55   241.64   254.23   277.09   292.73
                              407.49   438.39   478.05   497.63   575.10
                              594.35   675.88   709.17   728.60   747.37
                              794.24   805.27   817.13   875.60   903.17
                              983.66  1078.89  1120.01  1123.75  1235.37
                             1332.82  1387.75  1436.59  1460.26  1474.31
                             1506.52  1599.04  1644.07  1651.57  1701.88
                             1721.06  1739.20  1750.40  1810.54  1908.25
                             1941.98  1974.24  2151.15  2178.90  2338.21
                             2357.42  3104.55  4607.87  4627.69  4634.89
                             4648.87  4656.70

 Zero-point correction=                           0.127448 (Hartree/Particle)
 Thermal correction to Energy=                    0.142387
 Thermal correction to Enthalpy=                  0.143331
 Thermal correction to Gibbs Free Energy=         0.082124
 Sum of electronic and zero-point Energies=          -1302.364613
 Sum of electronic and thermal Energies=             -1302.349674
 Sum of electronic and thermal Enthalpies=           -1302.348730
 Sum of electronic and thermal Free Energies=        -1302.409938

                     E (Thermal)             CV                S
                      KCal/Mol        Cal/Mol-Kelvin    Cal/Mol-Kelvin
 Total                   89.349             53.266            128.822
 Electronic               0.000              0.000              0.000
 Translational            0.889              2.981             42.497
 Rotational               0.889              2.981             32.707
 Vibrational             87.572             47.304             53.618
 Vibration     1          0.593              1.986              6.958
 Vibration     2          0.593              1.985              6.496
 Vibration     3          0.595              1.979              5.025
 Vibration     4          0.597              1.973              4.401
 Vibration     5          0.600              1.962              3.862
 Vibration     6          0.607              1.939              3.217
 Vibration     7          0.625              1.882              2.458
 Vibration     8          0.628              1.871              2.363
 Vibration     9          0.635              1.850              2.203
 Vibration    10          0.639              1.835              2.102
 Vibration    11          0.682              1.705              1.514
 Vibration    12          0.696              1.665              1.391
 Vibration    13          0.714              1.611              1.249
 Vibration    14          0.724              1.584              1.185
 Vibration    15          0.766              1.471              0.964
 Vibration    16          0.777              1.442              0.916
 Vibration    17          0.827              1.317              0.738
 Vibration    18          0.849              1.266              0.676
 Vibration    19          0.862              1.236              0.642
 Vibration    20          0.874              1.207              0.611
 Vibration    21          0.907              1.135              0.540
 Vibration    22          0.915              1.119              0.524
 Vibration    23          0.924              1.101              0.508
 Vibration    24          0.967              1.014              0.435

 Normal termination of Gaussian 09 at Thu Apr  7 21:54:12 2005.
