 Gaussian 09, Revision B.01,
 Gaussian 09:  EM64L-G09RevB.01 12-Aug-2010

 ----------------------------
 # opt freq rb3lyp/6-31G(d,p)
 ----------------------------

 -----------------------------------------
 x2-2-HOOC-Ph-N2-OTf-v1-RB3LYP-6-311++G_dp
 -----------------------------------------
 Symbolic Z-matrix:
 Charge =  1 Multiplicity = 1

 SCF Done:  E(RB3LYP) =  -2020.49451717     A.U. after   18 cycles
 SCF Done:  E(RB3LYP) =  -2020.52909213     A.U. after   14 cycles
 SCF Done:  E(RB3LYP) =  -2020.53735350     A.U. after   14 cycles
 SCF Done:  E(RB3LYP) =  -2020.54003629     A.U. after   13 cycles
 SCF Done:  E(RB3LYP) =  -2020.54074292     A.U. after   12 cycles
 SCF Done:  E(RB3LYP) =  -2020.54073212     A.U. after   12 cycles
 SCF Done:  E(RB3LYP) =  -2020.54102246     A.U. after   11 cycles
 SCF Done:  E(RB3LYP) =  -2020.54111636     A.U. after   12 cycles
 SCF Done:  E(RB3LYP) =  -2020.54126734     A.U. after   14 cycles
 SCF Done:  E(RB3LYP) =  -2020.54133593     A.U. after   11 cycles
 SCF Done:  E(RB3LYP) =  -2020.54274455     A.U. after    7 cycles
 SCF Done:  E(RB3LYP) =  -2020.54274450     A.U. after    7 cycles
 SCF Done:  E(RB3LYP) =  -2020.54274450     A.U. after    7 cycles
 SCF Done:  E(RB3LYP) =  -2020.54274450     A.U. after    7 cycles
 SCF Done:  E(RB3LYP) =  -2020.54274454     A.U. after    7 cycles
 SCF Done:  E(RB3LYP) =  -2020.54274460     A.U. after    7 cycles
 SCF Done:  E(RB3LYP) =  -2020.54274471     A.U. after    7 cycles
 SCF Done:  E(RB3LYP) =  -2020.54274479     A.U. after    7 cycles
 SCF Done:  E(RB3LYP) =  -2020.54274480     A.U. after    6 cycles
 Optimization completed.
    -- Stationary point found.
 Normal termination of Gaussian 09 at Sun Jan  9 17:36:48 2005.

 ----------------------------------------------------------------------
 #N Geom=AllCheck Guess=TCheck SCRF=Check GenChk RB3LYP/6-31G(d,p) Freq
 ----------------------------------------------------------------------

 x2-2-HOOC-Ph-N2-OTf-v1-RB3LYP-6-311++G_dp
 -----------------------------------------
 Redundant internal coordinates taken from checkpoint file:
 Ph-N2-OTf-N2-Ph.chk
 Charge =  1 Multiplicity = 1

                         Standard orientation:
 ---------------------------------------------------------------------
 Center     Atomic      Atomic             Coordinates (Angstroms)
 Number     Number       Type             X           Y           Z
 ---------------------------------------------------------------------
      1          6           0       -3.813937   -0.443859    1.416885
      2          6           0       -4.099284    0.204720    0.208488
      3          6           0       -5.294849    0.921940   -0.035146
      4          6           0       -6.220261    0.972954    1.001427
      5          6           0       -5.961825    0.333533    2.221580
      6          6           0       -4.773106   -0.366787    2.426204
      7          1           0       -2.876614   -0.988891    1.525837
      8          1           0       -7.145149    1.515583    0.847818
      9          1           0       -6.700872    0.386144    3.014306
     10          1           0       -4.582309   -0.861711    3.372097
     11          7           0       -3.134170    0.100130   -0.788310
     12          7           0       -2.287725   -0.045203   -1.496068
     13         16           0        0.035325   -1.352648    0.498667
     14          8           0       -0.105949    0.010995   -0.095062
     15          8           0        1.177412   -1.469039    1.437996
     16          8           0       -1.243425   -1.948057    0.946182
     17          6           0        0.536289   -2.408660   -0.948142
     18          9           0        1.699532   -1.953490   -1.455966
     19          9           0       -0.394863   -2.352819   -1.909818
     20          9           0        0.705415   -3.678166   -0.578507
     21          1           0        3.168311   -1.503529    0.882889
     22          6           0        4.023721   -0.934122    0.529437
     23          6           0        3.951712    0.464721    0.500886
     24          6           0        5.206612   -1.523514    0.086101
     25          6           0        5.004364    1.295381    0.051085
     26          6           0        6.264166   -0.734420   -0.366358
     27          1           0        5.292579   -2.604466    0.096049
     28          6           0        6.163743    0.663205   -0.384755
     29          1           0        7.179503   -1.204714   -0.710255
     30          1           0        6.988047    1.271092   -0.737568
     31          7           0        2.765082    1.028001    0.960830
     32          7           0        1.768691    1.335358    1.346229
     33          6           0        4.839568    2.779737    0.060458
     34          8           0        3.827410    3.323534    0.452367
     35          8           0        5.918041    3.419677   -0.402934
     36          1           0        5.738585    4.375560   -0.365077
     37          6           0       -5.516154    1.584210   -1.355842
     38          8           0       -4.697729    1.551626   -2.251528
     39          8           0       -6.699848    2.202498   -1.427996
     40          1           0       -6.773012    2.605495   -2.310963
 ---------------------------------------------------------------------

 SCF Done:  E(RB3LYP) =  -2020.54274480     A.U. after    2 cycles

 The electronic state is 1-A.
 Alpha  occ. eigenvalues --  -89.18755 -24.81512 -24.81413 -24.81118 -19.32593
 Alpha  occ. eigenvalues --  -19.32407 -19.27304 -19.27104 -19.21557 -19.21428
 Alpha  occ. eigenvalues --  -19.21350 -14.65943 -14.65678 -14.62891 -14.62683
 Alpha  occ. eigenvalues --  -10.51703 -10.46037 -10.45855 -10.42410 -10.42243
 Alpha  occ. eigenvalues --  -10.37315 -10.37177 -10.35554 -10.35230 -10.34870
 Alpha  occ. eigenvalues --  -10.34746 -10.34739 -10.34608 -10.34346 -10.34181
 Alpha  occ. eigenvalues --   -8.21034  -6.17480  -6.17477  -6.17439  -1.39189
 Alpha  occ. eigenvalues --   -1.30882  -1.30647  -1.30513  -1.30423  -1.23855
 Alpha  occ. eigenvalues --   -1.23667  -1.19572  -1.15039  -1.14847  -1.06533
 Alpha  occ. eigenvalues --   -1.05964  -1.05143  -1.04960  -0.97064  -0.96913
 Alpha  occ. eigenvalues --   -0.92149  -0.91965  -0.85150  -0.84973  -0.80613
 Alpha  occ. eigenvalues --   -0.79568  -0.79388  -0.76416  -0.76223  -0.71538
 Alpha  occ. eigenvalues --   -0.70912  -0.70733  -0.66948  -0.66770  -0.66340
 Alpha  occ. eigenvalues --   -0.66248  -0.66102  -0.66037  -0.65476  -0.65336
 Alpha  occ. eigenvalues --   -0.63132  -0.62942  -0.62040  -0.61528  -0.61268
 Alpha  occ. eigenvalues --   -0.60310  -0.60185  -0.58519  -0.58377  -0.58255
 Alpha  occ. eigenvalues --   -0.58155  -0.58064  -0.57829  -0.54761  -0.54635
 Alpha  occ. eigenvalues --   -0.53602  -0.53490  -0.53047  -0.52702  -0.52275
 Alpha  occ. eigenvalues --   -0.51873  -0.51646  -0.51168  -0.51051  -0.50968
 Alpha  occ. eigenvalues --   -0.50581  -0.50075  -0.50005  -0.48476  -0.44915
 Alpha  occ. eigenvalues --   -0.44734  -0.42436  -0.41899  -0.41629  -0.41591
 Alpha  occ. eigenvalues --   -0.41121  -0.40906  -0.40822  -0.40687  -0.38631
 Alpha  occ. eigenvalues --   -0.38325  -0.37432  -0.34527
 Alpha virt. eigenvalues --   -0.23698  -0.23552  -0.20639  -0.20210  -0.17619
 Alpha virt. eigenvalues --   -0.17473  -0.12235  -0.12107  -0.07976  -0.07816
 Alpha virt. eigenvalues --   -0.04362  -0.04159  -0.02249  -0.02036   0.01309

 Mulliken atomic charges:
              1
     1  C    0.002159
     2  C    0.190339
     3  C    0.100286
     4  C   -0.119790
     5  C   -0.045883
     6  C   -0.098771
     7  H    0.225569
     8  H    0.168949
     9  H    0.155431
    10  H    0.160710
    11  N    0.128072
    12  N   -0.007069
    13  S    1.161236
    14  O   -0.616251
    15  O   -0.595456
    16  O   -0.580058
    17  C    0.574193
    18  F   -0.258719
    19  F   -0.241738
    20  F   -0.227484
    21  H    0.214041
    22  C    0.003288
    23  C    0.194099
    24  C   -0.094605
    25  C    0.096702
    26  C   -0.045524
    27  H    0.161470
    28  C   -0.118725
    29  H    0.156457
    30  H    0.169413
    31  N    0.129918
    32  N    0.010095
    33  C    0.603273
    34  O   -0.462770
    35  O   -0.473288
    36  H    0.357203
    37  C    0.601923
    38  O   -0.461656
    39  O   -0.474149
    40  H    0.357112
 Sum of Mulliken atomic charges =   1.00000

 Dipole moment (field-independent basis, Debye):
    X=              0.0006    Y=              5.9268    Z=              1.0258  Tot=              6.0149
 Quadrupole moment (field-independent basis, Debye-Ang):
   XX=             26.0596   YY=           -149.4855   ZZ=           -155.9697
   XY=             -5.3686   XZ=            -11.7306   YZ=             -2.0066

  Exact polarizability: 329.207 -34.350 199.910 -47.123 -16.111 180.945
 Approx polarizability: 497.982 -73.120 329.296-113.057 -25.487 331.416

                     1                      2                      3
                     A                      A                      A
 Frequencies --     5.9997                10.4815                12.0452
 Red. masses --     8.6646                 8.9547                 8.3165
 Frc consts  --     0.0002                 0.0006                 0.0007
 IR Inten    --     2.5684                 1.3563                 2.9375

                     4                      5                      6
                     A                      A                      A
 Frequencies --    19.1332                23.7436                29.6707
 Red. masses --     8.5589                10.9966                10.0539
 Frc consts  --     0.0018                 0.0037                 0.0052
 IR Inten    --     0.3082                 2.9727                 0.8362

                     7                      8                      9
                     A                      A                      A
 Frequencies --    41.7809                48.4747                51.4339
 Red. masses --    10.9665                 9.3496                14.2453
 Frc consts  --     0.0113                 0.0129                 0.0222
 IR Inten    --     0.0829                 1.1177                 1.1600

                    10                     11                     12
                     A                      A                      A
 Frequencies --    60.6142                64.8223                73.4569
 Red. masses --    11.2663                12.4882                 9.6938
 Frc consts  --     0.0244                 0.0309                 0.0308
 IR Inten    --     0.5620                 1.7448                 4.0619

                    13                     14                     15
                     A                      A                      A
 Frequencies --    87.2181               100.2451               120.3435
 Red. masses --    11.0192                12.2207                 9.5358
 Frc consts  --     0.0494                 0.0724                 0.0814
 IR Inten    --     7.3084                41.8665                 9.5673

                    16                     17                     18
                     A                      A                      A
 Frequencies --   125.8378               131.3581               178.6478
 Red. masses --     4.9873                 5.3764                 7.7602
 Frc consts  --     0.0465                 0.0547                 0.1459
 IR Inten    --     2.0081                 4.4675                 5.7746

                    19                     20                     21
                     A                      A                      A
 Frequencies --   182.1338               189.2953               203.3717
 Red. masses --     5.9289                 8.6596                12.0538
 Frc consts  --     0.1159                 0.1828                 0.2937
 IR Inten    --     0.7109                 9.0272                12.5546

                    22                     23                     24
                     A                      A                      A
 Frequencies --   205.0507               210.0469               214.0927
 Red. masses --     9.4853                 8.2919                11.6081
 Frc consts  --     0.2350                 0.2155                 0.3135
 IR Inten    --    22.2164                 7.7320                 3.5376

                    25                     26                     27
                     A                      A                      A
 Frequencies --   222.7624               306.5926               333.2983
 Red. masses --     8.8193                17.7273                17.4845
 Frc consts  --     0.2578                 0.9818                 1.1444
 IR Inten    --    14.3015                 1.0484                 2.8153

                    28                     29                     30
                     A                      A                      A
 Frequencies --   344.7607               351.2151               351.4382
 Red. masses --    17.0912                 9.2826                 9.3637
 Frc consts  --     1.1969                 0.6746                 0.6814
 IR Inten    --    14.9384                10.5211                 9.8962

                    31                     32                     33
                     A                      A                      A
 Frequencies --   396.6502               397.1345               421.1679
 Red. masses --     4.5328                 4.5330                10.8070
 Frc consts  --     0.4202                 0.4212                 1.1294
 IR Inten    --     3.8245                 0.7371                 6.3646

                    34                     35                     36
                     A                      A                      A
 Frequencies --   424.0046               428.5902               429.0251
 Red. masses --    10.7572                 3.5465                 3.5314
 Frc consts  --     1.1394                 0.3838                 0.3830
 IR Inten    --     7.0061                 8.5670                 8.4885

                    37                     38                     39
                     A                      A                      A
 Frequencies --   495.4789               503.7536               521.0200
 Red. masses --    17.0711                17.5548                 9.1191
 Frc consts  --     2.4692                 2.6247                 1.4585
 IR Inten    --    20.2220                57.2659                 3.3117

                    40                     41                     42
                     A                      A                      A
 Frequencies --   522.9584               558.7768               560.0003
 Red. masses --     9.1890                 6.2220                10.8078
 Frc consts  --     1.4806                 1.1446                 1.9969
 IR Inten    --     0.6707                 5.3991                 0.6484

                    43                     44                     45
                     A                      A                      A
 Frequencies --   561.1037               563.9151               573.5350
 Red. masses --     6.8463                17.4427                 6.2749
 Frc consts  --     1.2700                 3.2681                 1.2161
 IR Inten    --    10.4047                29.2592                 9.2682

                    46                     47                     48
                     A                      A                      A
 Frequencies --   574.5302               604.1251               605.1607
 Red. masses --     6.3822                 1.3567                 1.3682
 Frc consts  --     1.2412                 0.2917                 0.2952
 IR Inten    --    10.5012                73.8858                53.4943

                    49                     50                     51
                     A                      A                      A
 Frequencies --   620.6195               643.1826               644.2382
 Red. masses --    18.0419                 5.5784                 5.6214
 Frc consts  --     4.0943                 1.3597                 1.3746
 IR Inten    --   112.5638                50.4378                53.6777

                    52                     53                     54
                     A                      A                      A
 Frequencies --   687.7348               688.9027               731.1993
 Red. masses --     2.9333                 3.0068                 4.7716
 Frc consts  --     0.8174                 0.8407                 1.5031
 IR Inten    --    73.9287                70.4739                13.3614

                    55                     56                     57
                     A                      A                      A
 Frequencies --   731.2166               757.5326               764.4880
 Red. masses --     4.7746                18.1316                 3.1427
 Frc consts  --     1.5041                 6.1304                 1.0822
 IR Inten    --    36.5107                 0.7144                48.1518

                    58                     59                     60
                     A                      A                      A
 Frequencies --   765.4373               809.4825               812.9899
 Red. masses --     3.2398                 1.5414                 1.5199
 Frc consts  --     1.1184                 0.5951                 0.5919
 IR Inten    --    45.5004                21.5687                17.0469

                    61                     62                     63
                     A                      A                      A
 Frequencies --   817.5725               817.8710               932.8324
 Red. masses --     5.7769                 5.8079                 1.3298
 Frc consts  --     2.2751                 2.2889                 0.6818
 IR Inten    --     6.4329                 6.8400                 3.6292

                    64                     65                     66
                     A                      A                      A
 Frequencies --   939.1536               987.2862              1013.6472
 Red. masses --     1.3338                14.9521                 1.3388
 Frc consts  --     0.6931                 8.5869                 0.8105
 IR Inten    --     0.2874               168.6928                11.7505

                    67                     68                     69
                     A                      A                      A
 Frequencies --  1023.6172              1035.3812              1045.1542
 Red. masses --     1.3575                 1.3472                 1.3260
 Frc consts  --     0.8380                 0.8509                 0.8534
 IR Inten    --     4.4105                 1.6429                 1.5441

                    70                     71                     72
                     A                      A                      A
 Frequencies --  1061.8900              1063.7442              1082.3301
 Red. masses --     2.5297                 2.6253                 4.7352
 Frc consts  --     1.6807                 1.7502                 3.2682
 IR Inten    --     6.0198                 3.3450                15.5961

                    73                     74                     75
                     A                      A                      A
 Frequencies --  1082.6201              1152.6605              1153.8059
 Red. masses --     4.9413                 4.0172                 3.8911
 Frc consts  --     3.4123                 3.1447                 3.0520
 IR Inten    --    17.4435               361.4970                44.7431

                    76                     77                     78
                     A                      A                      A
 Frequencies --  1173.9420              1177.2968              1180.6943
 Red. masses --     2.4993                 1.9938                 3.8820
 Frc consts  --     2.0294                 1.6282                 3.1884
 IR Inten    --    69.6908                65.0747               163.8410

                    79                     80                     81
                     A                      A                      A
 Frequencies --  1199.8854              1205.7973              1206.3141
 Red. masses --     4.0717                 1.3308                 1.1789
 Frc consts  --     3.4539                 1.1400                 1.0108
 IR Inten    --    82.7523                81.0504                35.4986

                    82                     83                     84
                     A                      A                      A
 Frequencies --  1212.7979              1213.2833              1222.6401
 Red. masses --     1.7599                 1.6748                10.9227
 Frc consts  --     1.5251                 1.4525                 9.6201
 IR Inten    --   117.8541               151.7960                70.8870

                    85                     86                     87
                     A                      A                      A
 Frequencies --  1247.6866              1254.7487              1313.9923
 Red. masses --    13.4855                13.1919                 1.5450
 Frc consts  --    12.3689                12.2369                 1.5717
 IR Inten    --   613.9510               265.6809                 1.5342

                    88                     89                     90
                     A                      A                      A
 Frequencies --  1318.5147              1378.7992              1378.8908
 Red. masses --     1.5475                 8.0736                 8.0655
 Frc consts  --     1.5851                 9.0432                 9.0353
 IR Inten    --     1.3270                19.7105                59.3704

                    91                     92                     93
                     A                      A                      A
 Frequencies --  1413.5551              1414.5827              1472.1381
 Red. masses --     2.9400                 2.9380                 2.0183
 Frc consts  --     3.4612                 3.4639                 2.5771
 IR Inten    --   135.4660               180.6910                17.2397

                    94                     95                     96
                     A                      A                      A
 Frequencies --  1474.0195              1524.5105              1526.8806
 Red. masses --     1.9674                 2.5970                 2.5227
 Frc consts  --     2.5186                 3.5562                 3.4651
 IR Inten    --    17.0251                 6.1495                 6.5334

                    97                     98                     99
                     A                      A                      A
 Frequencies --  1619.5601              1619.9077              1624.4905
 Red. masses --     5.3017                 5.2724                 6.0135
 Frc consts  --     8.1933                 8.1515                 9.3500
 IR Inten    --    71.0123                38.0862                15.3104

                   100                    101                    102
                     A                      A                      A
 Frequencies --  1625.0240              1819.7132              1820.7289
 Red. masses --     6.2782                11.0864                11.0812
 Frc consts  --     9.7679                21.6296                21.6435
 IR Inten    --    15.0116               255.8695               157.3338

                   103                    104                    105
                     A                      A                      A
 Frequencies --  2366.0640              2379.3038              3145.5394
 Red. masses --    13.9680                13.9710                 1.0991
 Frc consts  --    46.0720                46.5990                 6.4075
 IR Inten    --    52.5937                51.1942               318.5770

                   106                    107                    108
                     A                      A                      A
 Frequencies --  3189.4437              3215.5712              3216.4120
 Red. masses --     1.0969                 1.0898                 1.0900
 Frc consts  --     6.5740                 6.6393                 6.6438
 IR Inten    --   170.4225                 0.3201                 0.9238

                   109                    110                    111
                     A                      A                      A
 Frequencies --  3229.1353              3229.9497              3242.9450
 Red. masses --     1.0952                 1.0954                 1.0942
 Frc consts  --     6.7285                 6.7328                 6.7801
 IR Inten    --     1.6256                 2.7610                 2.9137

                   112                    113                    114
                     A                      A                      A
 Frequencies --  3243.0446              3751.1108              3752.0876
 Red. masses --     1.0941                 1.0648                 1.0648
 Frc consts  --     6.7799                 8.8273                 8.8319
 IR Inten    --     2.9809               158.7232               174.4048

 - Thermochemistry -
 -------------------
 Temperature   298.150 Kelvin.  Pressure   1.00000 Atm.
 Atom     1 has atomic number  6 and mass  12.00000

 Molecular mass:   447.02223 amu.
 Principal axes and moments of inertia in atomic units:
                           1         2         3
     Eigenvalues --  7329.04262********************
           X            0.99998  -0.00232  -0.00561
           Y            0.00219   0.99970  -0.02443
           Z            0.00567   0.02441   0.99969
 This molecule is an asymmetric top.
 Rotational symmetry number  1.
 Warning -- assumption of classical behavior for rotation
           may cause significant error
 Rotational temperatures (Kelvin)      0.01182     0.00313     0.00282
 Rotational constants (GHZ):           0.24625     0.06516     0.05882
 Zero-point vibrational energy     675339.1 (Joules/Mol)
                                  161.40993 (Kcal/Mol)
 Warning -- explicit consideration of  49 degrees of freedom as
           vibrations may cause significant error
 Vibrational temperatures:      8.63    15.08    17.33    27.53    34.16
          (Kelvin)             42.69    60.11    69.74    74.00    87.21
                               93.26   105.69   125.49   144.23   173.15
                              181.05   188.99   257.03   262.05   272.35
                              292.61   295.02   302.21   308.03   320.50
                              441.12   479.54   496.03   505.32   505.64
                              570.69   571.39   605.97   610.05   616.64
                              617.27   712.88   724.79   749.63   752.42
                              803.95   805.71   807.30   811.35   825.19
                              826.62   869.20   870.69   892.93   925.40
                              926.91   989.50   991.18  1052.03  1052.06
                             1089.92  1099.93  1101.29  1164.66  1169.71
                             1176.30  1176.73  1342.14  1351.23  1420.48
                             1458.41  1472.76  1489.68  1503.74  1527.82
                             1530.49  1557.23  1557.65  1658.42  1660.07
                             1689.04  1693.87  1698.75  1726.37  1734.87
                             1735.61  1744.94  1745.64  1759.10  1795.14
                             1805.30  1890.54  1897.05  1983.78  1983.91
                             2033.79  2035.27  2118.08  2120.78  2193.43
                             2196.84  2330.18  2330.68  2337.28  2338.04
                             2618.16  2619.62  3404.23  3423.28  4525.72
                             4588.89  4626.48  4627.69  4646.00  4647.17
                             4665.87  4666.01  5397.01  5398.41

 Zero-point correction=                           0.257223 (Hartree/Particle)
 Thermal correction to Energy=                    0.286467
 Thermal correction to Enthalpy=                  0.287411
 Thermal correction to Gibbs Free Energy=         0.188006
 Sum of electronic and zero-point Energies=          -2020.285522
 Sum of electronic and thermal Energies=             -2020.256278
 Sum of electronic and thermal Enthalpies=           -2020.255334
 Sum of electronic and thermal Free Energies=        -2020.354739

                     E (Thermal)             CV                S
                      KCal/Mol        Cal/Mol-Kelvin    Cal/Mol-Kelvin
 Total                  179.761            102.915            209.215
 Electronic               0.000              0.000              0.000
 Translational            0.889              2.981             44.182
 Rotational               0.889              2.981             37.075
 Vibrational            177.983             96.953            127.959
 Vibration     1          0.593              1.987              9.026
 Vibration     2          0.593              1.987              7.918
 Vibration     3          0.593              1.987              7.641
 Vibration     4          0.593              1.986              6.722
 Vibration     5          0.593              1.985              6.294
 Vibration     6          0.593              1.984              5.851
 Vibration     7          0.594              1.980              5.173
 Vibration     8          0.595              1.978              4.879
 Vibration     9          0.596              1.977              4.761
 Vibration    10          0.597              1.973              4.437
 Vibration    11          0.597              1.971              4.305
 Vibration    12          0.599              1.967              4.059
 Vibration    13          0.601              1.958              3.722
 Vibration    14          0.604              1.949              3.450
 Vibration    15          0.609              1.932              3.095
 Vibration    16          0.611              1.927              3.009
 Vibration    17          0.612              1.922              2.926
 Vibration    18          0.629              1.869              2.343
 Vibration    19          0.630              1.864              2.306
 Vibration    20          0.633              1.855              2.235
 Vibration    21          0.639              1.835              2.102
 Vibration    22          0.640              1.833              2.087
 Vibration    23          0.642              1.825              2.043
 Vibration    24          0.644              1.819              2.009
 Vibration    25          0.648              1.806              1.937
 Vibration    26          0.697              1.661              1.381
 Vibration    27          0.715              1.609              1.244
 Vibration    28          0.723              1.586              1.190
 Vibration    29          0.728              1.573              1.161
 Vibration    30          0.728              1.572              1.160
 Vibration    31          0.763              1.477              0.975
 Vibration    32          0.764              1.476              0.973
 Vibration    33          0.784              1.424              0.888
 Vibration    34          0.786              1.418              0.878
 Vibration    35          0.790              1.408              0.863
 Vibration    36          0.790              1.407              0.862
 Vibration    37          0.851              1.260              0.670
 Vibration    38          0.859              1.242              0.649
 Vibration    39          0.876              1.203              0.608
 Vibration    40          0.878              1.199              0.603
 Vibration    41          0.914              1.121              0.526
 Vibration    42          0.916              1.118              0.524
 Vibration    43          0.917              1.115              0.522
 Vibration    44          0.920              1.109              0.516
 Vibration    45          0.930              1.088              0.497
 Vibration    46          0.931              1.086              0.496
 Vibration    47          0.963              1.023              0.443
 Vibration    48          0.964              1.021              0.441
 Vibration    49          0.981              0.988              0.416

 Normal termination of Gaussian 09 at Sun Jan  9 18:11:34 2005.
