 Gaussian 09, Revision B.01,
 Gaussian 09:  EM64L-G09RevB.01 12-Aug-2010

 ----------------------------
 # opt freq rb3lyp/6-31G(d,p)
 ----------------------------

 ----------------------------------------------
 x2-2-HOOC-4-Br-Ph-N2-OTf-v2-RB3LYP-6-311++G_dp
 ----------------------------------------------
 Symbolic Z-matrix:
 Charge =  1 Multiplicity = 1

 SCF Done:  E(RB3LYP) =  -7162.68496465     A.U. after   20 cycles
 SCF Done:  E(RB3LYP) =  -7162.71975220     A.U. after   14 cycles
 SCF Done:  E(RB3LYP) =  -7162.72816833     A.U. after   14 cycles
 SCF Done:  E(RB3LYP) =  -7162.73143865     A.U. after   13 cycles
 SCF Done:  E(RB3LYP) =  -7162.73218116     A.U. after   12 cycles
 SCF Done:  E(RB3LYP) =  -7162.73213715     A.U. after   13 cycles
 SCF Done:  E(RB3LYP) =  -7162.73252372     A.U. after   12 cycles
 SCF Done:  E(RB3LYP) =  -7162.73262375     A.U. after   11 cycles
 SCF Done:  E(RB3LYP) =  -7162.73281834     A.U. after   13 cycles
 SCF Done:  E(RB3LYP) =  -7162.73295885     A.U. after   13 cycles
 SCF Done:  E(RB3LYP) =  -7162.73536875     A.U. after   10 cycles
 SCF Done:  E(RB3LYP) =  -7162.73536893     A.U. after    8 cycles
 SCF Done:  E(RB3LYP) =  -7162.73536798     A.U. after    9 cycles
 SCF Done:  E(RB3LYP) =  -7162.73536766     A.U. after    8 cycles
 SCF Done:  E(RB3LYP) =  -7162.73536667     A.U. after   10 cycles
 SCF Done:  E(RB3LYP) =  -7162.73536624     A.U. after    8 cycles
 SCF Done:  E(RB3LYP) =  -7162.73536586     A.U. after    8 cycles
 SCF Done:  E(RB3LYP) =  -7162.73536570     A.U. after    7 cycles
 SCF Done:  E(RB3LYP) =  -7162.73536572     A.U. after    7 cycles
 Optimization completed.
    -- Stationary point found.
 Normal termination of Gaussian 09 at Sun Jan  9 14:22:35 2005.

 ----------------------------------------------------------------------
 #N Geom=AllCheck Guess=TCheck SCRF=Check GenChk RB3LYP/6-31G(d,p) Freq
 ----------------------------------------------------------------------

 x2-2-HOOC-4-Br-Ph-N2-OTf-v2-RB3LYP-6-311++G_dp
 ----------------------------------------------
 Redundant internal coordinates taken from checkpoint file:
 Ph-N2-OTf-N2-Ph.chk
 Charge =  1 Multiplicity = 1

                         Standard orientation:
 ---------------------------------------------------------------------
 Center     Atomic      Atomic             Coordinates (Angstroms)
 Number     Number       Type             X           Y           Z
 ---------------------------------------------------------------------
      1          6           0        3.596051   -0.251609   -0.754180
      2          6           0        3.822050   -0.164946    0.631204
      3          6           0        4.977802    0.444066    1.188817
      4          6           0        5.900001    0.974331    0.297817
      5          6           0        5.688750    0.898551   -1.086815
      6          6           0        4.545518    0.286941   -1.611272
      7          1           0        2.696390   -0.749972   -1.111934
      8          1           0        6.787603    1.446066    0.702739
      9          1           0        4.397789    0.228823   -2.683096
     10          7           0        2.848406   -0.712533    1.442983
     11          7           0        2.035105   -1.151054    2.065621
     12         16           0       -0.161366   -1.866945   -0.279877
     13          8           0       -0.259706   -0.844798    0.807752
     14          8           0       -1.262121   -1.783825   -1.265443
     15          8           0        1.207498   -2.024200   -0.822878
     16          6           0       -0.469974   -3.473823    0.604718
     17          9           0       -1.711428   -3.459673    1.134871
     18          9           0        0.411496   -3.635183    1.601193
     19          9           0       -0.378181   -4.506829   -0.230105
     20          1           0       -2.273821   -0.235071    0.484238
     21          6           0       -3.231681    0.238329    0.273712
     22          6           0       -4.274614   -0.461189   -0.353923
     23          6           0       -3.456660    1.567956    0.610401
     24          6           0       -5.528250    0.123843   -0.654366
     25          6           0       -4.684626    2.169611    0.320281
     26          1           0       -2.671003    2.134065    1.096108
     27          6           0       -5.715559    1.453801   -0.308974
     28          1           0       -6.661758    1.931889   -0.527726
     29          7           0       -4.031334   -1.785666   -0.674124
     30          7           0       -3.685421   -2.822855   -0.877143
     31          6           0       -6.592079   -0.691033   -1.320376
     32          8           0       -6.432304   -1.858940   -1.605822
     33          8           0       -7.705767    0.009590   -1.551048
     34          1           0       -8.349643   -0.579846   -1.982154
     35          6           0        5.302588    0.572690    2.651112
     36          8           0        6.300737    1.116099    3.054742
     37          8           0        4.364528    0.017029    3.441901
     38          1           0        4.649836    0.133254    4.365618
     39         35           0       -4.971552    3.971702    0.777588
     40         35           0        6.970506    1.631415   -2.249682
 ---------------------------------------------------------------------

 SCF Done:  E(RB3LYP) =  -7162.73536572     A.U. after    1 cycles

 The electronic state is 1-A.
 Alpha  occ. eigenvalues -- -483.04060-483.03688 -89.19023 -62.00207 -61.99834
 Alpha  occ. eigenvalues --  -56.52367 -56.51995 -56.51930 -56.51913 -56.51558
 Alpha  occ. eigenvalues --  -56.51539 -24.81827 -24.81683 -24.81323 -19.33060
 Alpha  occ. eigenvalues --  -19.33006 -19.27751 -19.27102 -19.21871 -19.21698
 Alpha  occ. eigenvalues --  -19.21569 -14.66335 -14.66202 -14.63131 -14.63032
 Alpha  occ. eigenvalues --  -10.51944 -10.46514 -10.46077 -10.42810 -10.42796
 Alpha  occ. eigenvalues --  -10.40280 -10.39978 -10.38179 -10.38084 -10.36323
 Alpha  occ. eigenvalues --  -10.35965 -10.35745 -10.35262 -10.35244 -10.34979
 Alpha  occ. eigenvalues --   -8.71352  -8.70980  -8.21304  -6.66797  -6.66426
 Alpha  occ. eigenvalues --   -6.65498  -6.65365  -6.65131  -6.64987  -6.17755
 Alpha  occ. eigenvalues --   -6.17745  -6.17708  -2.78365  -2.78015  -2.77995
 Alpha  occ. eigenvalues --   -2.77913  -2.77646  -2.77536  -2.76874  -2.76871
 Alpha  occ. eigenvalues --   -2.76501  -2.76499  -1.39434  -1.31190  -1.31167
 Alpha  occ. eigenvalues --   -1.30769  -1.30675  -1.24292  -1.23984  -1.19873
 Alpha  occ. eigenvalues --   -1.15520  -1.15073  -1.06856  -1.06255  -1.05952
 Alpha  occ. eigenvalues --   -1.05849  -0.99484  -0.99318  -0.93326  -0.92972
 Alpha  occ. eigenvalues --   -0.91585  -0.91294  -0.83323  -0.83145  -0.80890
 Alpha  occ. eigenvalues --   -0.80289  -0.80130  -0.77094  -0.75314  -0.72382
 Alpha  occ. eigenvalues --   -0.71777  -0.71146  -0.67466  -0.67240  -0.67054
 Alpha  occ. eigenvalues --   -0.66653  -0.66624  -0.66519  -0.65683  -0.64307
 Alpha  occ. eigenvalues --   -0.63424  -0.63072  -0.62396  -0.61888  -0.60790
 Alpha  occ. eigenvalues --   -0.60536  -0.59911  -0.59534  -0.59365  -0.58886
 Alpha  occ. eigenvalues --   -0.58735  -0.58397  -0.58303  -0.54971  -0.54828
 Alpha  occ. eigenvalues --   -0.53918  -0.53751  -0.53473  -0.53380  -0.53242
 Alpha  occ. eigenvalues --   -0.53088  -0.52516  -0.51959  -0.51146  -0.51080
 Alpha  occ. eigenvalues --   -0.50984  -0.50722  -0.50415  -0.48726  -0.46259
 Alpha  occ. eigenvalues --   -0.45900  -0.45133  -0.45041  -0.42396  -0.42033
 Alpha  occ. eigenvalues --   -0.41844  -0.41631  -0.41294  -0.41232  -0.40852
 Alpha  occ. eigenvalues --   -0.40557  -0.39023  -0.38755  -0.38567  -0.38418
 Alpha  occ. eigenvalues --   -0.37698  -0.34939
 Alpha virt. eigenvalues --   -0.24247  -0.24186  -0.21051  -0.20960  -0.18325
 Alpha virt. eigenvalues --   -0.17989  -0.12990  -0.12885  -0.11527  -0.11101
 Alpha virt. eigenvalues --   -0.08713  -0.08399  -0.03928  -0.03756  -0.01702

 Mulliken atomic charges:
              1
     1  C   -0.001513
     2  C    0.180924
     3  C    0.116385
     4  C   -0.117428
     5  C    0.072125
     6  C   -0.097398
     7  H    0.225521
     8  H    0.186173
     9  H    0.170340
    10  N    0.123307
    11  N   -0.022738
    12  S    1.188552
    13  O   -0.629844
    14  O   -0.600509
    15  O   -0.593583
    16  C    0.574190
    17  F   -0.262383
    18  F   -0.242622
    19  F   -0.223312
    20  H    0.217970
    21  C    0.026849
    22  C    0.198401
    23  C   -0.111702
    24  C    0.100725
    25  C    0.075963
    26  H    0.164684
    27  C   -0.121327
    28  H    0.180864
    29  N    0.122920
    30  N   -0.000514
    31  C    0.612854
    32  O   -0.455911
    33  O   -0.473217
    34  H    0.360168
    35  C    0.602430
    36  O   -0.416756
    37  O   -0.513565
    38  H    0.359633
    39  Br   0.007838
    40  Br   0.015506
 Sum of Mulliken atomic charges =   1.00000

 Dipole moment (field-independent basis, Debye):
    X=             -3.2039    Y=              4.1739    Z=              1.8770  Tot=              5.5865
 Quadrupole moment (field-independent basis, Debye-Ang):
   XX=            -39.8477   YY=           -196.1032   ZZ=           -180.8700
   XY=             -2.9782   XZ=             13.6126   YZ=             -4.9267

  Exact polarizability: 352.167  33.729 283.176 -10.725  14.329 231.663
 Approx polarizability: 512.288  57.195 516.474 -37.655  30.131 408.797

                     1                      2                      3
                     A                      A                      A
 Frequencies --     4.9950                 6.0179                10.7521
 Red. masses --    24.2312                13.4241                 9.7906
 Frc consts  --     0.0004                 0.0003                 0.0007
 IR Inten    --     0.0814                 0.2687                 0.4939

                     4                      5                      6
                     A                      A                      A
 Frequencies --    15.5123                25.4411                26.3106
 Red. masses --     9.9870                15.7216                12.3606
 Frc consts  --     0.0014                 0.0060                 0.0050
 IR Inten    --     0.0633                 2.5756                 2.0034

                     7                      8                      9
                     A                      A                      A
 Frequencies --    38.2181                41.8693                43.7831
 Red. masses --    14.2495                14.6697                11.8768
 Frc consts  --     0.0123                 0.0152                 0.0134
 IR Inten    --     2.2008                 0.3807                 1.7714

                    10                     11                     12
                     A                      A                      A
 Frequencies --    52.0683                54.1787                60.5689
 Red. masses --    11.4107                14.7480                13.5727
 Frc consts  --     0.0182                 0.0255                 0.0293
 IR Inten    --     0.3705                 1.2343                 3.3776

                    13                     14                     15
                     A                      A                      A
 Frequencies --    73.0815                83.1294                88.1191
 Red. masses --    13.2275                10.3906                 9.6853
 Frc consts  --     0.0416                 0.0423                 0.0443
 IR Inten    --     7.6612                 2.4911                 1.2270

                    16                     17                     18
                     A                      A                      A
 Frequencies --    92.7697               117.7754               136.9325
 Red. masses --    15.1359                14.9870                10.4796
 Frc consts  --     0.0767                 0.1225                 0.1158
 IR Inten    --    23.8960                27.3486                 4.6220

                    19                     20                     21
                     A                      A                      A
 Frequencies --   145.3030               147.0075               147.7697
 Red. masses --     8.0898                 6.5764                 4.8877
 Frc consts  --     0.1006                 0.0837                 0.0629
 IR Inten    --     0.3482                 0.5698                 1.2213

                    22                     23                     24
                     A                      A                      A
 Frequencies --   182.9352               196.7731               207.6499
 Red. masses --    12.7752                15.2992                14.4085
 Frc consts  --     0.2519                 0.3490                 0.3660
 IR Inten    --    14.9547                 1.6103                26.0039

                    25                     26                     27
                     A                      A                      A
 Frequencies --   214.1714               239.7438               244.5720
 Red. masses --    16.8199                 7.5372                 7.6548
 Frc consts  --     0.4546                 0.2552                 0.2698
 IR Inten    --     4.9182                 0.1602                 2.4840

                    28                     29                     30
                     A                      A                      A
 Frequencies --   267.0991               270.6100               284.2008
 Red. masses --    12.2341                12.6640                10.1184
 Frc consts  --     0.5142                 0.5464                 0.4815
 IR Inten    --     7.8231                 7.1659                10.4796

                    31                     32                     33
                     A                      A                      A
 Frequencies --   290.0606               306.7102               333.1479
 Red. masses --     8.2479                17.5884                17.5231
 Frc consts  --     0.4089                 0.9748                 1.1459
 IR Inten    --    14.7603                 2.0562                 2.8383

                    34                     35                     36
                     A                      A                      A
 Frequencies --   344.5890               359.7736               367.7013
 Red. masses --    17.2418                 8.1528                 8.2083
 Frc consts  --     1.2062                 0.6218                 0.6539
 IR Inten    --    15.2984                13.4902                 4.6512

                    37                     38                     39
                     A                      A                      A
 Frequencies --   424.7068               429.0223               429.3147
 Red. masses --     3.2671                 9.4454                 3.8147
 Frc consts  --     0.3472                 1.0243                 0.4143
 IR Inten    --     6.0855                 3.0097                 2.3594

                    40                     41                     42
                     A                      A                      A
 Frequencies --   433.0069               471.6263               471.9906
 Red. masses --     9.3358                 6.2297                 5.7077
 Frc consts  --     1.0313                 0.8164                 0.7492
 IR Inten    --     2.8495                 3.2631                 4.3353

                    43                     44                     45
                     A                      A                      A
 Frequencies --   494.7854               503.9870               558.5645
 Red. masses --    17.5282                17.4655                13.0549
 Frc consts  --     2.5283                 2.6138                 2.3998
 IR Inten    --    17.9885                54.9462                 4.3396

                    46                     47                     48
                     A                      A                      A
 Frequencies --   559.3352               559.8571               564.5134
 Red. masses --     4.4874                 6.1559                10.3420
 Frc consts  --     0.8272                 1.1368                 1.9418
 IR Inten    --     1.8225                 4.4787                20.7344

                    49                     50                     51
                     A                      A                      A
 Frequencies --   570.7330               580.4802               609.1353
 Red. masses --     6.4874                 7.1257                 8.4601
 Frc consts  --     1.2451                 1.4147                 1.8495
 IR Inten    --    31.5787                18.3541                43.5710

                    52                     53                     54
                     A                      A                      A
 Frequencies --   615.8949               619.6500               621.3966
 Red. masses --     8.1079                 1.4033                11.0979
 Frc consts  --     1.8121                 0.3175                 2.5248
 IR Inten    --    40.2769               123.1375                54.8784

                    55                     56                     57
                     A                      A                      A
 Frequencies --   626.5971               647.1055               663.9158
 Red. masses --     1.4502                 5.0757                 5.7887
 Frc consts  --     0.3355                 1.2523                 1.5034
 IR Inten    --   111.5290                38.5946                49.4788

                    58                     59                     60
                     A                      A                      A
 Frequencies --   702.3284               702.4069               737.8956
 Red. masses --     3.5617                 3.5219                 5.0794
 Frc consts  --     1.0351                 1.0238                 1.6295
 IR Inten    --    20.1372                20.1349                20.8079

                    61                     62                     63
                     A                      A                      A
 Frequencies --   738.4434               757.1742               767.2421
 Red. masses --     5.4262                18.2432                 6.3496
 Frc consts  --     1.7433                 6.1623                 2.2022
 IR Inten    --    31.0641                 1.0414                25.8062

                    64                     65                     66
                     A                      A                      A
 Frequencies --   772.6703               854.3659               856.8745
 Red. masses --     6.3072                 6.8419                 6.7784
 Frc consts  --     2.2186                 2.9425                 2.9323
 IR Inten    --    21.7655                37.0876                34.6316

                    67                     68                     69
                     A                      A                      A
 Frequencies --   876.4868               890.8266               951.0324
 Red. masses --     1.3367                 1.3351                 1.4467
 Frc consts  --     0.6050                 0.6242                 0.7709
 IR Inten    --    23.3494                20.5617                 7.7816

                    70                     71                     72
                     A                      A                      A
 Frequencies --   970.6197               988.1283              1019.0458
 Red. masses --     1.4140                15.0367                 1.3407
 Frc consts  --     0.7849                 8.6503                 0.8203
 IR Inten    --     9.6868               198.7865                 2.5355

                    73                     74                     75
                     A                      A                      A
 Frequencies --  1043.5962              1078.7671              1086.1617
 Red. masses --     1.3139                 3.4092                 3.1814
 Frc consts  --     0.8431                 2.3375                 2.2113
 IR Inten    --     4.8052                35.7094                66.6175

                    76                     77                     78
                     A                      A                      A
 Frequencies --  1112.8939              1121.8318              1159.3518
 Red. masses --     4.1753                 4.2046                 2.5056
 Frc consts  --     3.0468                 3.1177                 1.9842
 IR Inten    --     0.4757                52.1209                48.5350

                    79                     80                     81
                     A                      A                      A
 Frequencies --  1161.6437              1176.8347              1184.3453
 Red. masses --     3.9912                 3.9233                 3.6811
 Frc consts  --     3.1732                 3.2013                 3.0422
 IR Inten    --   208.2635                91.3223               200.7004

                    82                     83                     84
                     A                      A                      A
 Frequencies --  1194.3710              1196.4845              1210.2906
 Red. masses --     3.2519                 2.9574                 1.6692
 Frc consts  --     2.7332                 2.4944                 1.4406
 IR Inten    --     9.5052               204.5682               150.2608

                    85                     86                     87
                     A                      A                      A
 Frequencies --  1212.0564              1223.6820              1249.8924
 Red. masses --     1.5489                11.5715                11.0548
 Frc consts  --     1.3407                10.2089                10.1753
 IR Inten    --   316.8730                60.0135               728.7429

                    88                     89                     90
                     A                      A                      A
 Frequencies --  1259.4746              1298.2446              1304.5756
 Red. masses --    12.9065                 1.4096                 1.3917
 Frc consts  --    12.0625                 1.3998                 1.3955
 IR Inten    --   286.2883                 7.7315                16.3766

                    91                     92                     93
                     A                      A                      A
 Frequencies --  1355.2310              1359.5004              1383.0231
 Red. masses --     4.9833                 8.7520                 3.1721
 Frc consts  --     5.3926                 9.5305                 3.5748
 IR Inten    --     3.0194                15.2862               154.6949

                    94                     95                     96
                     A                      A                      A
 Frequencies --  1407.8847              1438.0439              1439.5578
 Red. masses --     2.8966                 3.3963                 3.3589
 Frc consts  --     3.3827                 4.1381                 4.1011
 IR Inten    --   239.8226                 7.7421                32.5643

                    97                     98                     99
                     A                      A                      A
 Frequencies --  1503.1786              1504.7568              1582.9940
 Red. masses --     2.4530                 2.5076                 7.4538
 Frc consts  --     3.2657                 3.3453                11.0048
 IR Inten    --     0.7914                 5.8185                58.9555

                   100                    101                    102
                     A                      A                      A
 Frequencies --  1596.1870              1608.0645              1610.3913
 Red. masses --     7.7776                 5.7010                 5.6345
 Frc consts  --    11.6752                 8.6858                 8.6093
 IR Inten    --    42.3761               280.6206               252.4920

                   103                    104                    105
                     A                      A                      A
 Frequencies --  1823.9896              1846.5142              2354.0145
 Red. masses --    11.2283                11.0908                13.9649
 Frc consts  --    22.0095                22.2803                45.5940
 IR Inten    --   185.1440               228.2534               150.5368

                   106                    107                    108
                     A                      A                      A
 Frequencies --  2376.0903              3155.5795              3159.5754
 Red. masses --    13.9707                 1.0987                 1.0978
 Frc consts  --    46.4723                 6.4461                 6.4567
 IR Inten    --   186.7239               541.1175               134.8783

                   109                    110                    111
                     A                      A                      A
 Frequencies --  3236.1886              3238.7032              3239.4592
 Red. masses --     1.0936                 1.0932                 1.0923
 Frc consts  --     6.7483                 6.7559                 6.7539
 IR Inten    --     6.1976                 5.9890                13.5803

                   112                    113                    114
                     A                      A                      A
 Frequencies --  3250.4986              3745.4038              3749.0214
 Red. masses --     1.0928                 1.0646                 1.0648
 Frc consts  --     6.8026                 8.7993                 8.8179
 IR Inten    --    10.2835               163.8759               186.0432

 - Thermochemistry -
 -------------------
 Temperature   298.150 Kelvin.  Pressure   1.00000 Atm.
 Atom     1 has atomic number  6 and mass  12.00000

 Molecular mass:   602.84325 amu.
 Principal axes and moments of inertia in atomic units:
                           1         2         3
     Eigenvalues --  ******************************
           X            0.99984   0.00626   0.01687
           Y           -0.00643   0.99993   0.01034
           Z           -0.01680  -0.01045   0.99980
 This molecule is an asymmetric top.
 Rotational symmetry number  1.
 Warning -- assumption of classical behavior for rotation
           may cause significant error
 Rotational temperatures (Kelvin)      0.00546     0.00166     0.00148
 Rotational constants (GHZ):           0.11372     0.03452     0.03075
 Zero-point vibrational energy     620867.0 (Joules/Mol)
                                  148.39076 (Kcal/Mol)
 Warning -- explicit consideration of  53 degrees of freedom as
           vibrations may cause significant error
 Vibrational temperatures:      7.19     8.66    15.47    22.32    36.60
          (Kelvin)             37.86    54.99    60.24    62.99    74.91
                               77.95    87.15   105.15   119.60   126.78
                              133.47   169.45   197.02   209.06   211.51
                              212.61   263.20   283.11   298.76   308.14
                              344.94   351.88   384.30   389.35   408.90
                              417.33   441.29   479.32   495.79   517.63
                              529.04   611.06   617.27   617.69   623.00
                              678.56   679.09   711.88   725.12   803.65
                              804.76   805.51   812.21   821.16   835.18
                              876.41   886.13   891.54   894.05   901.53
                              931.04   955.23  1010.49  1010.61  1061.67
                             1062.45  1089.40  1103.89  1111.70  1229.24
                             1232.85  1261.07  1281.70  1368.32  1396.50
                             1421.69  1466.18  1501.50  1552.10  1562.74
                             1601.20  1614.06  1668.05  1671.34  1693.20
                             1704.01  1718.43  1721.47  1741.34  1743.88
                             1760.60  1798.31  1812.10  1867.88  1876.99
                             1949.87  1956.02  1989.86  2025.63  2069.02
                             2071.20  2162.74  2165.01  2277.57  2296.55
                             2313.64  2316.99  2624.31  2656.72  3386.90
                             3418.66  4540.17  4545.92  4656.15  4659.77
                             4660.85  4676.74  5388.79  5394.00

 Zero-point correction=                           0.236476 (Hartree/Particle)
 Thermal correction to Energy=                    0.268721
 Thermal correction to Enthalpy=                  0.269665
 Thermal correction to Gibbs Free Energy=         0.160886
 Sum of electronic and zero-point Energies=          -7162.498890
 Sum of electronic and thermal Energies=             -7162.466644
 Sum of electronic and thermal Enthalpies=           -7162.465700
 Sum of electronic and thermal Free Energies=        -7162.574479

                     E (Thermal)             CV                S
                      KCal/Mol        Cal/Mol-Kelvin    Cal/Mol-Kelvin
 Total                  168.625            111.161            228.945
 Electronic               0.000              0.000              0.000
 Translational            0.889              2.981             45.073
 Rotational               0.889              2.981             39.118
 Vibrational            166.848            105.199            144.754
 Vibration     1          0.593              1.987              9.390
 Vibration     2          0.593              1.987              9.020
 Vibration     3          0.593              1.987              7.867
 Vibration     4          0.593              1.986              7.139
 Vibration     5          0.593              1.985              6.156
 Vibration     6          0.593              1.985              6.090
 Vibration     7          0.594              1.982              5.349
 Vibration     8          0.594              1.980              5.169
 Vibration     9          0.595              1.980              5.080
 Vibration    10          0.596              1.977              4.737
 Vibration    11          0.596              1.976              4.659
 Vibration    12          0.597              1.973              4.439
 Vibration    13          0.599              1.967              4.069
 Vibration    14          0.600              1.961              3.816
 Vibration    15          0.601              1.958              3.701
 Vibration    16          0.602              1.954              3.601
 Vibration    17          0.608              1.935              3.137
 Vibration    18          0.614              1.916              2.846
 Vibration    19          0.617              1.908              2.733
 Vibration    20          0.617              1.906              2.711
 Vibration    21          0.617              1.905              2.701
 Vibration    22          0.630              1.863              2.298
 Vibration    23          0.636              1.844              2.163
 Vibration    24          0.641              1.829              2.064
 Vibration    25          0.644              1.819              2.008
 Vibration    26          0.657              1.780              1.805
 Vibration    27          0.660              1.772              1.769
 Vibration    28          0.672              1.734              1.615
 Vibration    29          0.674              1.727              1.592
 Vibration    30          0.683              1.703              1.508
 Vibration    31          0.686              1.692              1.474
 Vibration    32          0.697              1.661              1.380
 Vibration    33          0.715              1.609              1.245
 Vibration    34          0.723              1.586              1.191
 Vibration    35          0.734              1.555              1.123
 Vibration    36          0.740              1.539              1.089
 Vibration    37          0.787              1.416              0.876
 Vibration    38          0.790              1.407              0.862
 Vibration    39          0.791              1.406              0.861
 Vibration    40          0.794              1.398              0.849
 Vibration    41          0.829              1.313              0.733
 Vibration    42          0.829              1.312              0.732
 Vibration    43          0.850              1.262              0.671
 Vibration    44          0.859              1.241              0.648
 Vibration    45          0.914              1.121              0.527
 Vibration    46          0.915              1.119              0.525
 Vibration    47          0.915              1.118              0.524
 Vibration    48          0.920              1.108              0.515
 Vibration    49          0.927              1.095              0.503
 Vibration    50          0.937              1.074              0.484
 Vibration    51          0.968              1.012              0.434
 Vibration    52          0.975              0.998              0.423
 Vibration    53          0.980              0.990              0.417

 Normal termination of Gaussian 09 at Sun Jan  9 15:04:49 2005.
