 Gaussian 09, Revision B.01,
 Gaussian 09:  EM64L-G09RevB.01 12-Aug-2010

 ------------------------------------------------
 #p Temperature=298.15 opt freq rb3lyp/6-31G(d,p)
 ------------------------------------------------

 -------------------------------------------
 x2-2-HOOC-4-Br-Ph-N2-OTf-v1-RB3LYP-6-31G_dp
 -------------------------------------------
 Symbolic Z-matrix:
 Charge =  1 Multiplicity = 1

 SCF Done:  E(RB3LYP) =  -7162.40917221     A.U. after   22 cycles
 SCF Done:  E(RB3LYP) =  -7162.55359118     A.U. after   15 cycles
 SCF Done:  E(RB3LYP) =  -7162.68460200     A.U. after   15 cycles
 SCF Done:  E(RB3LYP) =  -7162.69770653     A.U. after   18 cycles
 SCF Done:  E(RB3LYP) =  -7162.70082911     A.U. after   19 cycles
 SCF Done:  E(RB3LYP) =  -7162.72235281     A.U. after   19 cycles
 SCF Done:  E(RB3LYP) =  -7162.73400772     A.U. after   19 cycles
 SCF Done:  E(RB3LYP) =  -7162.73635008     A.U. after   15 cycles
 SCF Done:  E(RB3LYP) =  -7162.73652862     A.U. after   16 cycles
 SCF Done:  E(RB3LYP) =  -7162.73796432     A.U. after   13 cycles
 SCF Done:  E(RB3LYP) =  -7162.73962201     A.U. after    9 cycles
 SCF Done:  E(RB3LYP) =  -7162.73962224     A.U. after    9 cycles
 SCF Done:  E(RB3LYP) =  -7162.73962247     A.U. after    8 cycles
 SCF Done:  E(RB3LYP) =  -7162.73962262     A.U. after    9 cycles
 SCF Done:  E(RB3LYP) =  -7162.73962253     A.U. after    8 cycles
 SCF Done:  E(RB3LYP) =  -7162.73962237     A.U. after    8 cycles
 SCF Done:  E(RB3LYP) =  -7162.73962210     A.U. after    8 cycles
 SCF Done:  E(RB3LYP) =  -7162.73962184     A.U. after    8 cycles
 SCF Done:  E(RB3LYP) =  -7162.73962154     A.U. after    8 cycles
 Optimization completed.
    -- Stationary point found.
 Normal termination of Gaussian 09 at Thu Mar  3 04:45:06 2005.

 ----------------------------------------------------------------------
 #P Geom=AllCheck Guess=TCheck SCRF=Check GenChk RB3LYP/6-31G(d,p) Freq
 ----------------------------------------------------------------------

 x2-2-HOOC-4-Br-Ph-N2-OTf-v1-RB3LYP-6-31G_dp
 -------------------------------------------
 Redundant internal coordinates taken from checkpoint file:
 /home/ubuntu/g09/Gau-6999.chk
 Charge =  1 Multiplicity = 1

                         Standard orientation:
 ---------------------------------------------------------------------
 Center     Atomic      Atomic             Coordinates (Angstroms)
 Number     Number       Type             X           Y           Z
 ---------------------------------------------------------------------
      1          6           0        3.967873   -0.547356   -0.592358
      2          6           0        4.163489   -0.210151    0.755370
      3          6           0        5.377316    0.324956    1.250948
      4          6           0        6.406224    0.522851    0.341534
      5          6           0        6.227199    0.193553   -1.011946
      6          6           0        5.020628   -0.338824   -1.475495
      7          1           0        3.012063   -0.968261   -0.904443
      8          1           0        7.347465    0.932403    0.685459
      9          1           0        4.901419   -0.592419   -2.522154
     10          7           0        3.097266   -0.437839    1.610448
     11          7           0        2.170936   -0.649823    2.190891
     12         16           0       -0.005901   -1.134813   -0.258050
     13          8           0        0.179349    0.053191    0.625755
     14          8           0       -0.947005   -0.896840   -1.380137
     15          8           0        1.257014   -1.827373   -0.603144
     16          6           0       -0.900875   -2.354953    0.823577
     17          9           0       -2.093889   -1.838276    1.186567
     18          9           0       -0.194517   -2.606267    1.931909
     19          9           0       -1.118634   -3.499018    0.174499
     20          1           0       -2.980131   -0.834394   -1.237792
     21          6           0       -3.859949   -0.275984   -0.927517
     22          6           0       -3.716453    1.060536   -0.524867
     23          6           0       -5.132952   -0.831850   -0.901410
     24          6           0       -4.804447    1.860143   -0.098268
     25          6           0       -6.222667   -0.064130   -0.479936
     26          1           0       -5.275908   -1.861623   -1.206316
     27          6           0       -6.061025    1.272574   -0.080623
     28          1           0       -6.914906    1.854147    0.242655
     29          7           0       -2.436174    1.587815   -0.573137
     30          7           0       -1.368890    1.893616   -0.649095
     31         35           0       -7.940551   -0.827826   -0.442786
     32         35           0        7.643638    0.476275   -2.216999
     33          6           0        5.515480    0.657126    2.702984
     34          8           0        4.614398    0.494403    3.498437
     35          8           0        6.724188    1.141668    3.004837
     36          1           0        6.742221    1.331175    3.959456
     37          6           0       -4.577505    3.280876    0.310900
     38          8           0       -3.481513    3.800276    0.284977
     39          8           0       -5.703499    3.889160    0.695802
     40          1           0       -5.481954    4.803849    0.944301
 ---------------------------------------------------------------------

 SCF Done:  E(RB3LYP) =  -7162.73962154     A.U. after    1 cycles

 The electronic state is 1-A.
 Alpha  occ. eigenvalues -- -483.03662-483.03580 -89.18847 -61.99808 -61.99727
 Alpha  occ. eigenvalues --  -56.51969 -56.51887 -56.51531 -56.51514 -56.51450
 Alpha  occ. eigenvalues --  -56.51433 -24.81635 -24.81463 -24.81211 -19.32867
 Alpha  occ. eigenvalues --  -19.32712 -19.27598 -19.27433 -19.21583 -19.21528
 Alpha  occ. eigenvalues --  -19.21470 -14.65993 -14.65699 -14.62803 -14.62579
 Alpha  occ. eigenvalues --  -10.51799 -10.46374 -10.46210 -10.42560 -10.42395
 Alpha  occ. eigenvalues --  -10.39946 -10.39828 -10.37946 -10.37804 -10.36012
 Alpha  occ. eigenvalues --  -10.35732 -10.35495 -10.35382 -10.34973 -10.34845
 Alpha  occ. eigenvalues --   -8.70954  -8.70873  -8.21127  -6.66400  -6.66319
 Alpha  occ. eigenvalues --   -6.65099  -6.65018  -6.64964  -6.64885  -6.17572
 Alpha  occ. eigenvalues --   -6.17570  -6.17533  -2.77967  -2.77886  -2.77619
 Alpha  occ. eigenvalues --   -2.77535  -2.77513  -2.77433  -2.76473  -2.76470
 Alpha  occ. eigenvalues --   -2.76393  -2.76391  -1.39277  -1.30841  -1.30628
 Alpha  occ. eigenvalues --   -1.30568  -1.30511  -1.24150  -1.23988  -1.19668
 Alpha  occ. eigenvalues --   -1.15356  -1.15194  -1.06625  -1.06075  -1.05681
 Alpha  occ. eigenvalues --   -1.05500  -0.99179  -0.99029  -0.93090  -0.92942
 Alpha  occ. eigenvalues --   -0.91240  -0.91088  -0.83038  -0.82899  -0.80720
 Alpha  occ. eigenvalues --   -0.79899  -0.79739  -0.76932  -0.76756  -0.71619
 Alpha  occ. eigenvalues --   -0.70834  -0.70660  -0.67027  -0.66847  -0.66324
 Alpha  occ. eigenvalues --   -0.66172  -0.66073  -0.66003  -0.65528  -0.65310
 Alpha  occ. eigenvalues --   -0.63175  -0.63040  -0.62245  -0.61924  -0.61666
 Alpha  occ. eigenvalues --   -0.59686  -0.59574  -0.59196  -0.59040  -0.58672
 Alpha  occ. eigenvalues --   -0.58583  -0.58433  -0.58332  -0.54835  -0.54719
 Alpha  occ. eigenvalues --   -0.53638  -0.53497  -0.53210  -0.53052  -0.52998
 Alpha  occ. eigenvalues --   -0.52887  -0.52413  -0.51654  -0.51374  -0.51031
 Alpha  occ. eigenvalues --   -0.50744  -0.50381  -0.50286  -0.48568  -0.45998
 Alpha  occ. eigenvalues --   -0.45867  -0.44875  -0.44729  -0.42345  -0.41913
 Alpha  occ. eigenvalues --   -0.41521  -0.41474  -0.41375  -0.41359  -0.40504
 Alpha  occ. eigenvalues --   -0.40400  -0.38768  -0.38496  -0.38395  -0.38217
 Alpha  occ. eigenvalues --   -0.37534  -0.34605
 Alpha virt. eigenvalues --   -0.23941  -0.23760  -0.20733  -0.20334  -0.18096
 Alpha virt. eigenvalues --   -0.17969  -0.12719  -0.12574  -0.11132  -0.11058
 Alpha virt. eigenvalues --   -0.08521  -0.08385  -0.03877  -0.03713  -0.01447

 Mulliken atomic charges:
              1
     1  C    0.005845
     2  C    0.191571
     3  C    0.101720
     4  C   -0.121396
     5  C    0.073638
     6  C   -0.101427
     7  H    0.228337
     8  H    0.179870
     9  H    0.170487
    10  N    0.123360
    11  N   -0.009167
    12  S    1.163450
    13  O   -0.612929
    14  O   -0.596629
    15  O   -0.587961
    16  C    0.574075
    17  F   -0.260772
    18  F   -0.238696
    19  F   -0.227995
    20  H    0.218822
    21  C    0.007020
    22  C    0.193015
    23  C   -0.098142
    24  C    0.100589
    25  C    0.073779
    26  H    0.171417
    27  C   -0.120583
    28  H    0.180368
    29  N    0.120926
    30  N    0.005628
    31  Br   0.012065
    32  Br   0.009106
    33  C    0.608529
    34  O   -0.458030
    35  O   -0.473638
    36  H    0.358521
    37  C    0.609419
    38  O   -0.459782
    39  O   -0.472909
    40  H    0.358500
 Sum of Mulliken atomic charges =   1.00000

 Dipole moment (field-independent basis, Debye):
    X=              0.8848    Y=              6.2350    Z=              1.6220  Tot=              6.5030
 Quadrupole moment (field-independent basis, Debye-Ang):
   XX=             -8.5189   YY=           -183.2839   ZZ=           -186.5168
   XY=            -12.5733   XZ=             16.0920   YZ=              5.4059

  Exact polarizability: 455.171  53.201 208.779 -40.751  19.295 219.920
 Approx polarizability: 702.828 116.186 346.650-100.667  30.918 387.792

                     1                      2                      3
                     A                      A                      A
 Frequencies --     5.6136                 6.6925                 9.7041
 Red. masses --    18.0354                18.6038                 9.2851
 Frc consts  --     0.0003                 0.0005                 0.0005
 IR Inten    --     0.2199                 0.5592                 0.1425

                     4                      5                      6
                     A                      A                      A
 Frequencies --    14.6466                25.0297                26.6830
 Red. masses --    14.8853                14.5465                10.9083
 Frc consts  --     0.0019                 0.0054                 0.0046
 IR Inten    --     0.4849                 3.1278                 0.9052

                     7                      8                      9
                     A                      A                      A
 Frequencies --    33.6193                41.7967                47.9636
 Red. masses --    15.5328                12.9709                14.4394
 Frc consts  --     0.0103                 0.0134                 0.0196
 IR Inten    --     0.6085                 0.6114                 0.8281

                    10                     11                     12
                     A                      A                      A
 Frequencies --    56.1318                60.3959                64.6274
 Red. masses --    13.8727                13.6647                14.7299
 Frc consts  --     0.0258                 0.0294                 0.0362
 IR Inten    --     0.5911                 2.2492                 3.3462

                    13                     14                     15
                     A                      A                      A
 Frequencies --    74.7858                80.1252                93.3322
 Red. masses --    10.9943                10.1290                10.6785
 Frc consts  --     0.0362                 0.0383                 0.0548
 IR Inten    --     4.2081                11.3529                 4.8552

                    16                     17                     18
                     A                      A                      A
 Frequencies --    98.5993               111.6358               138.5111
 Red. masses --    13.0755                16.5149                10.6512
 Frc consts  --     0.0749                 0.1213                 0.1204
 IR Inten    --    26.8369                26.5142                 3.5703

                    19                     20                     21
                     A                      A                      A
 Frequencies --   141.7255               146.4528               147.3901
 Red. masses --    10.4733                 4.9318                 4.7607
 Frc consts  --     0.1239                 0.0623                 0.0609
 IR Inten    --     2.0387                 0.2117                 1.3143

                    22                     23                     24
                     A                      A                      A
 Frequencies --   182.3008               195.7579               205.3898
 Red. masses --    13.0081                13.1931                15.8502
 Frc consts  --     0.2547                 0.2979                 0.3940
 IR Inten    --    14.7116                 6.9751                25.6207

                    25                     26                     27
                     A                      A                      A
 Frequencies --   214.4541               244.3471               245.8645
 Red. masses --    16.8800                 7.6753                 7.7122
 Frc consts  --     0.4574                 0.2700                 0.2747
 IR Inten    --     1.9170                 4.7941                 1.4368

                    28                     29                     30
                     A                      A                      A
 Frequencies --   266.4360               268.0265               284.9548
 Red. masses --    12.3083                12.7002                10.0877
 Frc consts  --     0.5148                 0.5375                 0.4826
 IR Inten    --     6.3361                 5.6466                24.8219

                    31                     32                     33
                     A                      A                      A
 Frequencies --   285.8218               307.6053               333.2201
 Red. masses --    10.0566                17.5567                17.4542
 Frc consts  --     0.4841                 0.9788                 1.1419
 IR Inten    --     8.7253                 2.3176                 3.1043

                    34                     35                     36
                     A                      A                      A
 Frequencies --   344.5933               360.0806               360.3694
 Red. masses --    17.2447                 8.1348                 8.1359
 Frc consts  --     1.2065                 0.6214                 0.6225
 IR Inten    --    16.9325                11.3330                12.3099

                    37                     38                     39
                     A                      A                      A
 Frequencies --   427.6307               428.7185               429.7470
 Red. masses --     3.3462                 4.2379                 6.2803
 Frc consts  --     0.3605                 0.4589                 0.6834
 IR Inten    --     6.6350                 7.4545                 3.6597

                    40                     41                     42
                     A                      A                      A
 Frequencies --   431.0048               471.8142               472.1378
 Red. masses --    10.6549                 6.3904                 6.3593
 Frc consts  --     1.1662                 0.8381                 0.8352
 IR Inten    --     1.8290                 4.3221                 2.4297

                    43                     44                     45
                     A                      A                      A
 Frequencies --   495.5821               503.3248               558.0024
 Red. masses --    17.4826                17.5948                 7.6032
 Frc consts  --     2.5298                 2.6262                 1.3948
 IR Inten    --    17.6607                65.0649                 8.9728

                    46                     47                     48
                     A                      A                      A
 Frequencies --   559.3409               559.9188               563.4648
 Red. masses --     4.9528                 6.8693                17.4116
 Frc consts  --     0.9130                 1.2689                 3.2570
 IR Inten    --     4.9469                 0.8216                29.3342

                    49                     50                     51
                     A                      A                      A
 Frequencies --   570.4585               571.0964               611.4023
 Red. masses --     6.3509                 6.5300                 7.6529
 Frc consts  --     1.2177                 1.2548                 1.6855
 IR Inten    --    13.9157                 7.4040                24.1153

                    52                     53                     54
                     A                      A                      A
 Frequencies --   611.6159               619.0971               620.1642
 Red. masses --     8.0299                 1.3609                 1.3572
 Frc consts  --     1.7698                 0.3073                 0.3075
 IR Inten    --    44.2506                99.0684               107.1468

                    55                     56                     57
                     A                      A                      A
 Frequencies --   622.1006               663.6787               664.2301
 Red. masses --    16.9765                 5.7655                 5.7623
 Frc consts  --     3.8710                 1.4962                 1.4979
 IR Inten    --   109.4404                33.0770                63.7874

                    58                     59                     60
                     A                      A                      A
 Frequencies --   701.4238               703.5100               737.8887
 Red. masses --     3.5886                 3.5849                 5.1774
 Frc consts  --     1.0402                 1.0454                 1.6609
 IR Inten    --    19.5720                18.3055                21.7401

                    61                     62                     63
                     A                      A                      A
 Frequencies --   738.0771               757.5264               772.8652
 Red. masses --     5.1843                18.2610                 6.4243
 Frc consts  --     1.6640                 6.1740                 2.2609
 IR Inten    --    26.8776                 1.1683                22.5033

                    64                     65                     66
                     A                      A                      A
 Frequencies --   773.5202               856.9443               857.3784
 Red. masses --     6.3761                 6.7685                 6.8269
 Frc consts  --     2.2478                 2.9285                 2.9568
 IR Inten    --    22.7691                70.0961                24.4368

                    67                     68                     69
                     A                      A                      A
 Frequencies --   886.2614               893.4612               951.8774
 Red. masses --     1.3352                 1.3407                 1.4389
 Frc consts  --     0.6179                 0.6306                 0.7682
 IR Inten    --    35.8393                23.6560                 6.1497

                    70                     71                     72
                     A                      A                      A
 Frequencies --   952.8427               988.0555              1029.3960
 Red. masses --     1.4367                15.6134                 1.3089
 Frc consts  --     0.7685                 8.9807                 0.8172
 IR Inten    --     6.6828               171.3745                11.4320

                    73                     74                     75
                     A                      A                      A
 Frequencies --  1047.3333              1080.1554              1080.3682
 Red. masses --     1.3089                 3.6755                 3.6387
 Frc consts  --     0.8459                 2.5266                 2.5023
 IR Inten    --     2.6698                50.5114                36.3708

                    76                     77                     78
                     A                      A                      A
 Frequencies --  1114.9350              1115.8502              1160.2120
 Red. masses --     3.2698                 3.4149                 4.0534
 Frc consts  --     2.3948                 2.5052                 3.2148
 IR Inten    --    12.8797                28.8342               628.5930

                    79                     80                     81
                     A                      A                      A
 Frequencies --  1162.6902              1181.4232              1189.2177
 Red. masses --     4.1246                 7.0677                 1.9669
 Frc consts  --     3.2852                 5.8122                 1.6389
 IR Inten    --    73.3750                62.0799                50.5198

                    82                     83                     84
                     A                      A                      A
 Frequencies --  1192.9185              1198.3850              1210.2524
 Red. masses --     1.9483                 5.0275                 1.6810
 Frc consts  --     1.6335                 4.2540                 1.4507
 IR Inten    --   103.7908               226.8644                90.5658

                    85                     86                     87
                     A                      A                      A
 Frequencies --  1211.0200              1224.6366              1245.1973
 Red. masses --     1.6328                10.7339                12.3042
 Frc consts  --     1.4109                 9.4847                11.2404
 IR Inten    --   164.9108                90.6549               617.0781

                    88                     89                     90
                     A                      A                      A
 Frequencies --  1255.4062              1305.7018              1309.0157
 Red. masses --    13.1137                 1.3809                 1.3828
 Frc consts  --    12.1771                 1.3871                 1.3961
 IR Inten    --   287.5314                 2.4645                 2.8117

                    91                     92                     93
                     A                      A                      A
 Frequencies --  1359.3436              1359.6949              1408.5835
 Red. masses --     8.6626                 8.6087                 2.9636
 Frc consts  --     9.4310                 9.3771                 3.4645
 IR Inten    --    10.4926                10.5447               130.0473

                    94                     95                     96
                     A                      A                      A
 Frequencies --  1409.0490              1436.6918              1437.3464
 Red. masses --     2.9660                 3.2843                 3.2858
 Frc consts  --     3.4696                 3.9941                 3.9996
 IR Inten    --   270.6925                 9.7784                 5.5266

                    97                     98                     99
                     A                      A                      A
 Frequencies --  1506.1458              1509.0424              1595.2781
 Red. masses --     2.5436                 2.4446                 8.0027
 Frc consts  --     3.3996                 3.2800                11.9995
 IR Inten    --    15.6986                15.8343                45.3669

                   100                    101                    102
                     A                      A                      A
 Frequencies --  1595.7153              1609.2025              1609.8433
 Red. masses --     8.0261                 5.5691                 5.5870
 Frc consts  --    12.0411                 8.4968                 8.5309
 IR Inten    --    31.3005               527.7908                24.4554

                   103                    104                    105
                     A                      A                      A
 Frequencies --  1823.2314              1824.2586              2360.7538
 Red. masses --    11.1825                11.1793                13.9676
 Frc consts  --    21.9014                21.9198                45.8641
 IR Inten    --   232.1508               155.0311               114.2603

                   106                    107                    108
                     A                      A                      A
 Frequencies --  2368.4374              3141.7270              3180.2285
 Red. masses --    13.9685                 1.0988                 1.0972
 Frc consts  --    46.1661                 6.3900                 6.5381
 IR Inten    --   132.9973               379.8608               219.5596

                   109                    110                    111
                     A                      A                      A
 Frequencies --  3235.9355              3237.6442              3249.2331
 Red. masses --     1.0936                 1.0937                 1.0926
 Frc consts  --     6.7468                 6.7547                 6.7965
 IR Inten    --     5.4682                 6.5318                10.1292

                   112                    113                    114
                     A                      A                      A
 Frequencies --  3250.3171              3750.8751              3751.0171
 Red. masses --     1.0926                 1.0648                 1.0648
 Frc consts  --     6.8008                 8.8264                 8.8271
 IR Inten    --     9.9340               108.7355               238.7131

 - Thermochemistry -
 -------------------
 Temperature   298.150 Kelvin.  Pressure   1.00000 Atm.
 Atom     1 has atomic number  6 and mass  12.00000

 Molecular mass:   602.84325 amu.
 Principal axes and moments of inertia in atomic units:
                           1         2         3
     Eigenvalues --  9833.87811********************
           X            0.99993  -0.00863   0.00853
           Y            0.00774   0.99507   0.09891
           Z           -0.00934  -0.09883   0.99506
 This molecule is an asymmetric top.
 Rotational symmetry number  1.
 Warning -- assumption of classical behavior for rotation
           may cause significant error
 Rotational temperatures (Kelvin)      0.00881     0.00136     0.00134
 Rotational constants (GHZ):           0.18352     0.02844     0.02796
 Zero-point vibrational energy     621307.8 (Joules/Mol)
                                  148.49613 (Kcal/Mol)
 Warning -- explicit consideration of  54 degrees of freedom as
           vibrations may cause significant error
 Vibrational temperatures:      8.08     9.63    13.96    21.07    36.01
          (Kelvin)             38.39    48.37    60.14    69.01    80.76
                               86.90    92.98   107.60   115.28   134.28
                              141.86   160.62   199.29   203.91   210.71
                              212.06   262.29   281.65   295.51   308.55
                              351.56   353.74   383.34   385.63   409.99
                              411.23   442.57   479.43   495.79   518.07
                              518.49   615.26   616.83   618.31   620.12
                              678.83   679.30   713.03   724.17   802.84
                              804.77   805.60   810.70   820.76   821.68
                              879.67   879.98   890.74   892.28   895.06
                              954.88   955.68  1009.19  1012.19  1061.66
                             1061.93  1089.91  1111.98  1112.92  1232.95
                             1233.57  1275.13  1285.49  1369.54  1370.93
                             1421.59  1481.07  1506.88  1554.10  1554.41
                             1604.14  1605.46  1669.28  1672.85  1699.80
                             1711.02  1716.34  1724.21  1741.28  1742.39
                             1761.98  1791.56  1806.25  1878.61  1883.38
                             1955.79  1956.30  2026.64  2027.30  2067.08
                             2068.02  2167.01  2171.17  2295.25  2295.88
                             2315.28  2316.20  2623.22  2624.70  3396.59
                             3407.65  4520.24  4575.63  4655.78  4658.24
                             4674.92  4676.48  5396.67  5396.87

 Zero-point correction=                           0.236644 (Hartree/Particle)
 Thermal correction to Energy=                    0.268868
 Thermal correction to Enthalpy=                  0.269813
 Thermal correction to Gibbs Free Energy=         0.161385
 Sum of electronic and zero-point Energies=          -7162.502978
 Sum of electronic and thermal Energies=             -7162.470753
 Sum of electronic and thermal Enthalpies=           -7162.469809
 Sum of electronic and thermal Free Energies=        -7162.578237

                     E (Thermal)             CV                S
                      KCal/Mol        Cal/Mol-Kelvin    Cal/Mol-Kelvin
 Total                  168.717            111.138            228.205
 Electronic               0.000              0.000              0.000
 Translational            0.889              2.981             45.073
 Rotational               0.889              2.981             38.930
 Vibrational            166.940            105.176            144.203
 Vibration     1          0.593              1.987              9.158
 Vibration     2          0.593              1.987              8.809
 Vibration     3          0.593              1.987              8.071
 Vibration     4          0.593              1.986              7.253
 Vibration     5          0.593              1.985              6.189
 Vibration     6          0.593              1.984              6.062
 Vibration     7          0.594              1.983              5.604
 Vibration     8          0.594              1.980              5.172
 Vibration     9          0.595              1.978              4.900
 Vibration    10          0.596              1.975              4.589
 Vibration    11          0.597              1.973              4.444
 Vibration    12          0.597              1.971              4.311
 Vibration    13          0.599              1.966              4.023
 Vibration    14          0.600              1.963              3.888
 Vibration    15          0.602              1.954              3.589
 Vibration    16          0.604              1.950              3.482
 Vibration    17          0.607              1.940              3.240
 Vibration    18          0.614              1.915              2.824
 Vibration    19          0.615              1.912              2.780
 Vibration    20          0.617              1.907              2.718
 Vibration    21          0.617              1.906              2.706
 Vibration    22          0.630              1.864              2.305
 Vibration    23          0.636              1.846              2.173
 Vibration    24          0.640              1.832              2.084
 Vibration    25          0.644              1.819              2.005
 Vibration    26          0.660              1.772              1.771
 Vibration    27          0.660              1.770              1.760
 Vibration    28          0.672              1.735              1.619
 Vibration    29          0.673              1.732              1.609
 Vibration    30          0.683              1.702              1.504
 Vibration    31          0.684              1.700              1.499
 Vibration    32          0.697              1.659              1.375
 Vibration    33          0.715              1.609              1.244
 Vibration    34          0.723              1.586              1.191
 Vibration    35          0.735              1.555              1.122
 Vibration    36          0.735              1.554              1.121
 Vibration    37          0.789              1.410              0.866
 Vibration    38          0.790              1.408              0.863
 Vibration    39          0.791              1.405              0.859
 Vibration    40          0.792              1.403              0.855
 Vibration    41          0.829              1.313              0.732
 Vibration    42          0.829              1.312              0.732
 Vibration    43          0.851              1.260              0.669
 Vibration    44          0.859              1.243              0.650
 Vibration    45          0.914              1.122              0.528
 Vibration    46          0.915              1.119              0.525
 Vibration    47          0.916              1.118              0.524
 Vibration    48          0.919              1.110              0.517
 Vibration    49          0.927              1.095              0.503
 Vibration    50          0.927              1.094              0.502
 Vibration    51          0.971              1.008              0.430
 Vibration    52          0.971              1.007              0.430
 Vibration    53          0.979              0.992              0.418
 Vibration    54          0.980              0.989              0.416

 Normal termination of Gaussian 09 at Thu Mar  3 05:32:41 2005.
