 Gaussian 09, Revision B.01,
 Gaussian 09:  EM64L-G09RevB.01 12-Aug-2010

 ----------------------------
 # opt freq rb3lyp/6-31G(d,p)
 ----------------------------

 -----------------------------------------
 x2-2-HOOC-Ph-N2-OTf-v2-RB3LYP-6-311++G_dp
 -----------------------------------------
 Symbolic Z-matrix:
 Charge =  1 Multiplicity = 1

 SCF Done:  E(RB3LYP) =  -2020.48843223     A.U. after   18 cycles
 SCF Done:  E(RB3LYP) =  -2020.52283658     A.U. after   14 cycles
 SCF Done:  E(RB3LYP) =  -2020.53074781     A.U. after   14 cycles
 SCF Done:  E(RB3LYP) =  -2020.53418446     A.U. after   13 cycles
 SCF Done:  E(RB3LYP) =  -2020.53494903     A.U. after   12 cycles
 SCF Done:  E(RB3LYP) =  -2020.53518154     A.U. after   13 cycles
 SCF Done:  E(RB3LYP) =  -2020.53529149     A.U. after   13 cycles
 SCF Done:  E(RB3LYP) =  -2020.53541833     A.U. after   11 cycles
 SCF Done:  E(RB3LYP) =  -2020.53567236     A.U. after   13 cycles
 SCF Done:  E(RB3LYP) =  -2020.53582939     A.U. after   14 cycles
 SCF Done:  E(RB3LYP) =  -2020.53816045     A.U. after   10 cycles
 SCF Done:  E(RB3LYP) =  -2020.53816052     A.U. after    8 cycles
 SCF Done:  E(RB3LYP) =  -2020.53816053     A.U. after    8 cycles
 SCF Done:  E(RB3LYP) =  -2020.53816053     A.U. after    7 cycles
 SCF Done:  E(RB3LYP) =  -2020.53816052     A.U. after    7 cycles
 SCF Done:  E(RB3LYP) =  -2020.53816050     A.U. after    7 cycles
 SCF Done:  E(RB3LYP) =  -2020.53816048     A.U. after    8 cycles
 SCF Done:  E(RB3LYP) =  -2020.53816045     A.U. after    8 cycles
 SCF Done:  E(RB3LYP) =  -2020.53816044     A.U. after    7 cycles
 Optimization completed.
    -- Stationary point found.
 Normal termination of Gaussian 09 at Sun Jan  9 19:43:48 2005.

 ----------------------------------------------------------------------
 #N Geom=AllCheck Guess=TCheck SCRF=Check GenChk RB3LYP/6-31G(d,p) Freq
 ----------------------------------------------------------------------

 x2-2-HOOC-Ph-N2-OTf-v2-RB3LYP-6-311++G_dp
 -----------------------------------------
 Redundant internal coordinates taken from checkpoint file:
 Ph-N2-OTf-N2-Ph.chk
 Charge =  1 Multiplicity = 1

                         Standard orientation:
 ---------------------------------------------------------------------
 Center     Atomic      Atomic             Coordinates (Angstroms)
 Number     Number       Type             X           Y           Z
 ---------------------------------------------------------------------
      1          6           0        3.766331    0.001804    1.704638
      2          6           0        4.218782   -0.296265    0.409133
      3          6           0        5.477931   -0.890996    0.135424
      4          6           0        6.275472   -1.184729    1.236805
      5          6           0        5.849549   -0.898264    2.539069
      6          6           0        4.606347   -0.308759    2.770838
      7          1           0        2.792835    0.472246    1.828612
      8          1           0        7.240590   -1.641459    1.048401
      9          1           0        6.499367   -1.137599    3.374456
     10          1           0        4.281989   -0.084231    3.780970
     11          7           0        3.354108    0.033791   -0.623921
     12          7           0        2.626482    0.303192   -1.421597
     13         16           0        0.010271    1.080755    0.392192
     14          8           0        0.186040   -0.090452   -0.519835
     15          8           0       -1.205698    0.993933    1.232644
     16          8           0        1.258173    1.497585    1.071833
     17          6           0       -0.347425    2.488287   -0.769792
     18          9           0       -1.506160    2.244747   -1.420483
     19          9           0        0.629139    2.604659   -1.678929
     20          9           0       -0.468423    3.637824   -0.108990
     21          1           0       -1.845537   -0.840088   -0.380843
     22          6           0       -2.801487   -1.358857   -0.356469
     23          6           0       -3.986862   -0.694506   -0.012621
     24          6           0       -2.899898   -2.715923   -0.661586
     25          6           0       -5.252841   -1.323235    0.038967
     26          6           0       -4.131754   -3.368583   -0.617782
     27          1           0       -1.999602   -3.256041   -0.932660
     28          6           0       -5.300096   -2.677900   -0.269442
     29          1           0       -4.191873   -4.425362   -0.856542
     30          1           0       -6.255138   -3.188129   -0.236878
     31          7           0       -3.874006    0.660515    0.280010
     32          7           0       -3.607034    1.718842    0.489046
     33          6           0       -6.462071   -0.529125    0.413144
     34          8           0       -6.409883    0.655316    0.672719
     35          8           0       -7.577521   -1.265036    0.424424
     36          1           0       -8.317894   -0.684423    0.674388
     37          6           0        6.027610   -1.231333   -1.219266
     38          8           0        7.107004   -1.746151   -1.378691
     39          8           0        5.189829   -0.899198   -2.221991
     40          1           0        5.621978   -1.144125   -3.059326
 ---------------------------------------------------------------------

 SCF Done:  E(RB3LYP) =  -2020.53816044     A.U. after    1 cycles

 The electronic state is 1-A.
 Alpha  occ. eigenvalues --  -89.18920 -24.81798 -24.81610 -24.81276 -19.32745
 Alpha  occ. eigenvalues --  -19.32702 -19.27430 -19.26764 -19.21739 -19.21589
 Alpha  occ. eigenvalues --  -19.21503 -14.66254 -14.66215 -14.63300 -14.63093
 Alpha  occ. eigenvalues --  -10.51878 -10.46154 -10.45708 -10.42679 -10.42637
 Alpha  occ. eigenvalues --  -10.37539 -10.37467 -10.35831 -10.35485 -10.35183
 Alpha  occ. eigenvalues --  -10.34976 -10.34870 -10.34607 -10.34461 -10.34317
 Alpha  occ. eigenvalues --   -8.21202  -6.17650  -6.17643  -6.17607  -1.39381
 Alpha  occ. eigenvalues --   -1.31299  -1.31174  -1.30720  -1.30624  -1.23971
 Alpha  occ. eigenvalues --   -1.23646  -1.19773  -1.15175  -1.14711  -1.06747
 Alpha  occ. eigenvalues --   -1.06138  -1.05378  -1.05362  -0.97327  -0.97202
 Alpha  occ. eigenvalues --   -0.92368  -0.92021  -0.85412  -0.85136  -0.80809
 Alpha  occ. eigenvalues --   -0.80140  -0.79761  -0.76551  -0.74759  -0.72214
 Alpha  occ. eigenvalues --   -0.71699  -0.71212  -0.67197  -0.67030  -0.66969
 Alpha  occ. eigenvalues --   -0.66662  -0.66501  -0.66426  -0.65894  -0.65176
 Alpha  occ. eigenvalues --   -0.63451  -0.63088  -0.62146  -0.61594  -0.61140
 Alpha  occ. eigenvalues --   -0.60555  -0.60174  -0.58852  -0.58669  -0.58387
 Alpha  occ. eigenvalues --   -0.58304  -0.58021  -0.57799  -0.54882  -0.54771
 Alpha  occ. eigenvalues --   -0.53680  -0.53509  -0.53311  -0.53173  -0.52487
 Alpha  occ. eigenvalues --   -0.52017  -0.51872  -0.51387  -0.51198  -0.50959
 Alpha  occ. eigenvalues --   -0.50821  -0.50640  -0.49800  -0.48683  -0.45023
 Alpha  occ. eigenvalues --   -0.44878  -0.42389  -0.42127  -0.41904  -0.41789
 Alpha  occ. eigenvalues --   -0.41353  -0.41050  -0.40847  -0.40627  -0.38775
 Alpha  occ. eigenvalues --   -0.38489  -0.37622  -0.34823
 Alpha virt. eigenvalues --   -0.24003  -0.23971  -0.20988  -0.20802  -0.17834
 Alpha virt. eigenvalues --   -0.17489  -0.12498  -0.12412  -0.08152  -0.07814
 Alpha virt. eigenvalues --   -0.04454  -0.04326  -0.02321  -0.02204   0.01274

 Mulliken atomic charges:
              1
     1  C   -0.005487
     2  C    0.179214
     3  C    0.114107
     4  C   -0.114786
     5  C   -0.046157
     6  C   -0.094622
     7  H    0.222144
     8  H    0.175580
     9  H    0.157481
    10  H    0.160523
    11  N    0.133966
    12  N   -0.017816
    13  S    1.192714
    14  O   -0.629065
    15  O   -0.601760
    16  O   -0.594853
    17  C    0.574066
    18  F   -0.265290
    19  F   -0.241502
    20  F   -0.223615
    21  H    0.216394
    22  C    0.020564
    23  C    0.194476
    24  C   -0.106832
    25  C    0.098083
    26  C   -0.044195
    27  H    0.155102
    28  C   -0.119878
    29  H    0.154675
    30  H    0.169926
    31  N    0.130003
    32  N    0.004073
    33  C    0.606286
    34  O   -0.458740
    35  O   -0.473655
    36  H    0.358877
    37  C    0.595765
    38  O   -0.418988
    39  O   -0.515061
    40  H    0.358285
 Sum of Mulliken atomic charges =   1.00000

 Dipole moment (field-independent basis, Debye):
    X=             -0.9449    Y=             -8.4248    Z=              0.0260  Tot=              8.4777
 Quadrupole moment (field-independent basis, Debye-Ang):
   XX=             -6.8770   YY=           -151.9256   ZZ=           -147.4611
   XY=             17.2965   XZ=             12.7129   YZ=             -1.0116

  Exact polarizability: 313.075 -23.849 203.311   7.011  18.380 186.346
 Approx polarizability: 444.047 -45.295 376.324  19.742  42.109 335.274

                     1                      2                      3
                     A                      A                      A
 Frequencies --     6.6914                11.0154                11.8254
 Red. masses --     8.3729                 7.7496                 8.7234
 Frc consts  --     0.0002                 0.0006                 0.0007
 IR Inten    --     0.5294                 0.8499                 0.6512

                     4                      5                      6
                     A                      A                      A
 Frequencies --    17.4343                27.1684                29.6033
 Red. masses --     7.6054                13.4117                11.1347
 Frc consts  --     0.0014                 0.0058                 0.0057
 IR Inten    --     1.0009                 1.8367                 2.3490

                     7                      8                      9
                     A                      A                      A
 Frequencies --    40.4622                49.7169                51.8925
 Red. masses --    11.8345                10.2018                13.9673
 Frc consts  --     0.0114                 0.0149                 0.0222
 IR Inten    --     1.5028                 0.6218                 2.8413

                    10                     11                     12
                     A                      A                      A
 Frequencies --    56.0319                67.0289                67.4547
 Red. masses --    10.0230                 9.3699                10.1926
 Frc consts  --     0.0185                 0.0248                 0.0273
 IR Inten    --     0.0918                 2.9481                 5.0685

                    13                     14                     15
                     A                      A                      A
 Frequencies --    76.3715                95.2776               115.5776
 Red. masses --    11.6804                12.4853                 9.8509
 Frc consts  --     0.0401                 0.0668                 0.0775
 IR Inten    --    12.3082                17.4524                24.6976

                    16                     17                     18
                     A                      A                      A
 Frequencies --   119.1164               125.0048               179.7664
 Red. masses --     5.0303                 5.6658                 6.4350
 Frc consts  --     0.0421                 0.0522                 0.1225
 IR Inten    --     1.2955                 3.1963                 6.3557

                    19                     20                     21
                     A                      A                      A
 Frequencies --   182.5219               189.3892               198.1475
 Red. masses --     6.1472                 9.7445                13.8422
 Frc consts  --     0.1207                 0.2059                 0.3202
 IR Inten    --     1.6295                12.0129                 0.5689

                    22                     23                     24
                     A                      A                      A
 Frequencies --   210.0193               212.4183               215.8585
 Red. masses --    13.1191                 6.7273                14.0965
 Frc consts  --     0.3409                 0.1788                 0.3870
 IR Inten    --    39.1004                 5.8190                 2.5017

                    25                     26                     27
                     A                      A                      A
 Frequencies --   229.5949               306.6288               333.1240
 Red. masses --     6.8807                17.7529                17.4964
 Frc consts  --     0.2137                 0.9834                 1.1440
 IR Inten    --     3.9742                 1.7435                 2.6480

                    28                     29                     30
                     A                      A                      A
 Frequencies --   344.2034               351.7715               355.3776
 Red. masses --    17.3043                 9.2772                 8.8308
 Frc consts  --     1.2079                 0.6764                 0.6571
 IR Inten    --    13.6383                13.0588                 6.4919

                    31                     32                     33
                     A                      A                      A
 Frequencies --   394.8023               397.8227               421.5261
 Red. masses --     4.3158                 4.6339                10.3489
 Frc consts  --     0.3963                 0.4321                 1.0834
 IR Inten    --     0.5299                 1.4639                 6.1071

                    34                     35                     36
                     A                      A                      A
 Frequencies --   426.1565               426.6786               429.2487
 Red. masses --     3.6024                 4.9264                 5.9780
 Frc consts  --     0.3855                 0.5284                 0.6490
 IR Inten    --     7.2893                 6.4548                 5.2434

                    37                     38                     39
                     A                      A                      A
 Frequencies --   493.5018               503.9265               511.4609
 Red. masses --    16.6462                17.2861                 8.0973
 Frc consts  --     2.3886                 2.5863                 1.2480
 IR Inten    --    19.7374                47.7271                 2.8813

                    40                     41                     42
                     A                      A                      A
 Frequencies --   523.0150               558.9203               561.5399
 Red. masses --     9.2139                15.0869                 5.9933
 Frc consts  --     1.4850                 2.7768                 1.1135
 IR Inten    --     3.8738                 4.4487                 2.0055

                    43                     44                     45
                     A                      A                      A
 Frequencies --   561.7220               564.9676               571.4676
 Red. masses --     6.6649                12.9123                 6.2496
 Frc consts  --     1.2390                 2.4283                 1.2025
 IR Inten    --     4.8113                26.8313                22.0263

                    46                     47                     48
                     A                      A                      A
 Frequencies --   591.6571               603.1100               603.9553
 Red. masses --     7.4048                 1.4055                 1.3947
 Frc consts  --     1.5272                 0.3012                 0.2997
 IR Inten    --     1.8933                62.1254                71.6256

                    49                     50                     51
                     A                      A                      A
 Frequencies --   619.2884               634.1181               643.3837
 Red. masses --    14.5321                 5.2079                 5.6420
 Frc consts  --     3.2837                 1.2338                 1.3760
 IR Inten    --    99.4239                34.7569                56.8631

                    52                     53                     54
                     A                      A                      A
 Frequencies --   686.5149               689.4187               729.6892
 Red. masses --     2.7773                 2.9052                 4.8546
 Frc consts  --     0.7712                 0.8136                 1.5229
 IR Inten    --    79.2470                69.5315                25.7229

                    55                     56                     57
                     A                      A                      A
 Frequencies --   731.0754               756.8650               761.0791
 Red. masses --     4.6613                18.1191                 3.7865
 Frc consts  --     1.4679                 6.1154                 1.2923
 IR Inten    --    23.1904                 1.1366                44.5798

                    58                     59                     60
                     A                      A                      A
 Frequencies --   764.9790               804.6563               813.6291
 Red. masses --     3.1821                 1.5581                 1.4181
 Frc consts  --     1.0971                 0.5944                 0.5531
 IR Inten    --    44.8811                13.5399                22.0878

                    61                     62                     63
                     A                      A                      A
 Frequencies --   815.1395               817.2899               923.6904
 Red. masses --     5.6140                 5.7007                 1.3486
 Frc consts  --     2.1978                 2.2435                 0.6779
 IR Inten    --     4.0617                 3.7659                 0.6198

                    64                     65                     66
                     A                      A                      A
 Frequencies --   947.4165               988.4097              1002.0568
 Red. masses --     1.3274                13.5868                 1.3710
 Frc consts  --     0.7020                 7.8206                 0.8111
 IR Inten    --     0.6418               179.2433                 4.8349

                    67                     68                     69
                     A                      A                      A
 Frequencies --  1029.8838              1034.1884              1044.0642
 Red. masses --     1.3501                 1.3594                 1.3343
 Frc consts  --     0.8437                 0.8567                 0.8570
 IR Inten    --     5.4701                 0.2277                 1.1302

                    70                     71                     72
                     A                      A                      A
 Frequencies --  1061.5208              1063.5422              1087.1271
 Red. masses --     2.7146                 2.6272                 4.7836
 Frc consts  --     1.8022                 1.7509                 3.3310
 IR Inten    --     9.4000                 4.1887                36.6484

                    73                     74                     75
                     A                      A                      A
 Frequencies --  1088.2640              1146.6466              1152.2521
 Red. masses --     5.2752                 2.7012                 3.9921
 Frc consts  --     3.6809                 2.0925                 3.1228
 IR Inten    --    10.1063                59.2124               162.0703

                    76                     77                     78
                     A                      A                      A
 Frequencies --  1162.1387              1176.1679              1185.0887
 Red. masses --     2.6742                 2.0973                 4.4012
 Frc consts  --     2.1280                 1.7094                 3.6418
 IR Inten    --    64.0216                95.3845                80.9883

                    79                     80                     81
                     A                      A                      A
 Frequencies --  1192.4313              1203.6081              1206.2906
 Red. masses --    11.5753                 1.1487                 1.1896
 Frc consts  --     9.6972                 0.9805                 1.0199
 IR Inten    --   107.6330                16.0901                31.9763

                    82                     83                     84
                     A                      A                      A
 Frequencies --  1212.6053              1214.4493              1224.5777
 Red. masses --     1.7434                 1.6569                10.9754
 Frc consts  --     1.5104                 1.4398                 9.6972
 IR Inten    --   195.9019               229.7368                61.0211

                    85                     86                     87
                     A                      A                      A
 Frequencies --  1248.7889              1259.4976              1306.7316
 Red. masses --    12.5023                13.0509                 1.5596
 Frc consts  --    11.4873                12.1979                 1.5690
 IR Inten    --   696.1978               275.3111                 7.3564

                    88                     89                     90
                     A                      A                      A
 Frequencies --  1312.0056              1376.9182              1378.1871
 Red. masses --     1.5487                 7.7800                 8.0060
 Frc consts  --     1.5707                 8.6905                 8.9595
 IR Inten    --    17.0809                36.9883                66.1939

                    91                     92                     93
                     A                      A                      A
 Frequencies --  1387.7699              1414.3200              1469.9895
 Red. masses --     2.7349                 2.8891                 1.9405
 Frc consts  --     3.1033                 3.4049                 2.4705
 IR Inten    --   115.1596               176.2890                 5.0380

                    94                     95                     96
                     A                      A                      A
 Frequencies --  1474.2342              1521.2680              1521.3371
 Red. masses --     2.0509                 2.5761                 2.6304
 Frc consts  --     2.6262                 3.5126                 3.5869
 IR Inten    --    12.4502                 2.2232                 2.1637

                    97                     98                     99
                     A                      A                      A
 Frequencies --  1611.9415              1619.4910              1623.4438
 Red. masses --     5.5866                 5.2976                 5.3986
 Frc consts  --     8.5526                 8.1863                 8.3830
 IR Inten    --    33.3566                68.6509                34.6634

                   100                    101                    102
                     A                      A                      A
 Frequencies --  1625.9767              1820.7278              1845.6853
 Red. masses --     6.1148                11.1323                10.9949
 Frc consts  --     9.5248                21.7433                22.0677
 IR Inten    --    11.7674               199.5910               264.4199

                   103                    104                    105
                     A                      A                      A
 Frequencies --  2366.7987              2382.5165              3167.6562
 Red. masses --    13.9673                13.9720                 1.0978
 Frc consts  --    46.0984                46.7284                 6.4898
 IR Inten    --    69.0572                76.8249               319.7987

                   106                    107                    108
                     A                      A                      A
 Frequencies --  3174.0748              3215.4288              3215.6577
 Red. masses --     1.0979                 1.0899                 1.0897
 Frc consts  --     6.5171                 6.6391                 6.6390
 IR Inten    --   240.1237                 0.5584                 0.0720

                   109                    110                    111
                     A                      A                      A
 Frequencies --  3228.8767              3229.9074              3234.7672
 Red. masses --     1.0939                 1.0951                 1.0956
 Frc consts  --     6.7194                 6.7308                 6.7543
 IR Inten    --     4.6650                 2.3417                 3.7475

                   112                    113                    114
                     A                      A                      A
 Frequencies --  3242.9486              3746.9776              3749.3118
 Red. masses --     1.0943                 1.0646                 1.0648
 Frc consts  --     6.7803                 8.8065                 8.8190
 IR Inten    --     2.9662               156.0427               178.1886

 - Thermochemistry -
 -------------------
 Temperature   298.150 Kelvin.  Pressure   1.00000 Atm.
 Atom     1 has atomic number  6 and mass  12.00000

 Molecular mass:   447.02223 amu.
 Principal axes and moments of inertia in atomic units:
                           1         2         3
     Eigenvalues --  6626.37086********************
           X            0.99998   0.00444   0.00476
           Y           -0.00454   0.99977   0.02116
           Z           -0.00466  -0.02118   0.99976
 This molecule is an asymmetric top.
 Rotational symmetry number  1.
 Warning -- assumption of classical behavior for rotation
           may cause significant error
 Rotational temperatures (Kelvin)      0.01307     0.00284     0.00264
 Rotational constants (GHZ):           0.27236     0.05918     0.05505
 Zero-point vibrational energy     674746.2 (Joules/Mol)
                                  161.26821 (Kcal/Mol)
 Warning -- explicit consideration of  49 degrees of freedom as
           vibrations may cause significant error
 Vibrational temperatures:      9.63    15.85    17.01    25.08    39.09
          (Kelvin)             42.59    58.22    71.53    74.66    80.62
                               96.44    97.05   109.88   137.08   166.29
                              171.38   179.85   258.64   262.61   272.49
                              285.09   302.17   305.62   310.57   330.34
                              441.17   479.29   495.23   506.12   511.31
                              568.03   572.38   606.48   613.14   613.89
                              617.59   710.04   725.04   735.88   752.50
                              804.16   807.93   808.19   812.86   822.21
                              851.26   867.74   868.96   891.02   912.35
                              925.68   987.74   991.92  1049.86  1051.85
                             1088.96  1095.02  1100.63  1157.72  1170.63
                             1172.80  1175.90  1328.98  1363.12  1422.10
                             1441.73  1481.77  1487.96  1502.17  1527.29
                             1530.20  1564.13  1565.77  1649.77  1657.83
                             1672.06  1692.24  1705.08  1715.64  1731.72
                             1735.58  1744.67  1747.32  1761.89  1796.73
                             1812.13  1880.09  1887.68  1981.08  1982.90
                             1996.69  2034.89  2114.98  2121.09  2188.76
                             2188.86  2319.22  2330.08  2335.77  2339.41
                             2619.62  2655.53  3405.29  3427.91  4557.55
                             4566.78  4626.28  4626.61  4645.63  4647.11
                             4654.10  4665.87  5391.06  5394.42

 Zero-point correction=                           0.256997 (Hartree/Particle)
 Thermal correction to Energy=                    0.286304
 Thermal correction to Enthalpy=                  0.287249
 Thermal correction to Gibbs Free Energy=         0.187600
 Sum of electronic and zero-point Energies=          -2020.281163
 Sum of electronic and thermal Energies=             -2020.251856
 Sum of electronic and thermal Enthalpies=           -2020.250912
 Sum of electronic and thermal Free Energies=        -2020.350560

                     E (Thermal)             CV                S
                      KCal/Mol        Cal/Mol-Kelvin    Cal/Mol-Kelvin
 Total                  179.659            102.988            209.728
 Electronic               0.000              0.000              0.000
 Translational            0.889              2.981             44.182
 Rotational               0.889              2.981             37.136
 Vibrational            177.881             97.026            128.410
 Vibration     1          0.593              1.987              8.809
 Vibration     2          0.593              1.987              7.819
 Vibration     3          0.593              1.987              7.678
 Vibration     4          0.593              1.986              6.907
 Vibration     5          0.593              1.984              6.026
 Vibration     6          0.593              1.984              5.856
 Vibration     7          0.594              1.981              5.236
 Vibration     8          0.595              1.978              4.829
 Vibration     9          0.596              1.977              4.744
 Vibration    10          0.596              1.975              4.592
 Vibration    11          0.598              1.970              4.239
 Vibration    12          0.598              1.970              4.226
 Vibration    13          0.599              1.965              3.982
 Vibration    14          0.603              1.953              3.549
 Vibration    15          0.608              1.936              3.173
 Vibration    16          0.609              1.933              3.115
 Vibration    17          0.610              1.928              3.022
 Vibration    18          0.629              1.867              2.331
 Vibration    19          0.630              1.864              2.302
 Vibration    20          0.633              1.854              2.234
 Vibration    21          0.637              1.842              2.150
 Vibration    22          0.642              1.826              2.044
 Vibration    23          0.643              1.822              2.023
 Vibration    24          0.645              1.817              1.994
 Vibration    25          0.652              1.796              1.882
 Vibration    26          0.697              1.661              1.380
 Vibration    27          0.715              1.609              1.245
 Vibration    28          0.723              1.587              1.193
 Vibration    29          0.728              1.572              1.158
 Vibration    30          0.731              1.564              1.142
 Vibration    31          0.762              1.481              0.982
 Vibration    32          0.764              1.475              0.971
 Vibration    33          0.784              1.423              0.887
 Vibration    34          0.788              1.413              0.871
 Vibration    35          0.788              1.412              0.870
 Vibration    36          0.791              1.407              0.861
 Vibration    37          0.849              1.264              0.675
 Vibration    38          0.859              1.241              0.648
 Vibration    39          0.867              1.225              0.630
 Vibration    40          0.878              1.199              0.603
 Vibration    41          0.915              1.120              0.526
 Vibration    42          0.917              1.115              0.521
 Vibration    43          0.917              1.114              0.520
 Vibration    44          0.921              1.107              0.514
 Vibration    45          0.928              1.093              0.501
 Vibration    46          0.949              1.050              0.464
 Vibration    47          0.961              1.025              0.444
 Vibration    48          0.962              1.023              0.443
 Vibration    49          0.979              0.991              0.418

 Normal termination of Gaussian 09 at Sun Jan  9 20:18:08 2005.
