 Gaussian 09, Revision B.01,
 Gaussian 09:  EM64L-G09RevB.01 12-Aug-2010

 ----------------------------
 # opt freq rb3lyp/6-31G(d,p)
 ----------------------------

 ----------------------------------------
 x2-2-NO2-Ph-N2-OTf-v1-RB3LYP-6-311++G_dp
 ----------------------------------------
 Symbolic Z-matrix:
 Charge =  1 Multiplicity = 1

 SCF Done:  E(RB3LYP) =  -2052.29551960     A.U. after   19 cycles
 SCF Done:  E(RB3LYP) =  -2052.33825480     A.U. after   15 cycles
 SCF Done:  E(RB3LYP) =  -2052.34930424     A.U. after   15 cycles
 SCF Done:  E(RB3LYP) =  -2052.35270154     A.U. after   15 cycles
 SCF Done:  E(RB3LYP) =  -2052.34419508     A.U. after   16 cycles
 SCF Done:  E(RB3LYP) =  -2052.35339420     A.U. after   15 cycles
 SCF Done:  E(RB3LYP) =  -2052.35415952     A.U. after   13 cycles
 SCF Done:  E(RB3LYP) =  -2052.35073594     A.U. after   14 cycles
 SCF Done:  E(RB3LYP) =  -2052.35424648     A.U. after   14 cycles
 SCF Done:  E(RB3LYP) =  -2052.35448811     A.U. after   13 cycles
 SCF Done:  E(RB3LYP) =  -2052.35609906     A.U. after   11 cycles
 SCF Done:  E(RB3LYP) =  -2052.35610156     A.U. after   11 cycles
 SCF Done:  E(RB3LYP) =  -2052.35610230     A.U. after   10 cycles
 SCF Done:  E(RB3LYP) =  -2052.35610285     A.U. after   10 cycles
 SCF Done:  E(RB3LYP) =  -2052.35610325     A.U. after    9 cycles
 SCF Done:  E(RB3LYP) =  -2052.35610372     A.U. after    9 cycles
 SCF Done:  E(RB3LYP) =  -2052.35610399     A.U. after    9 cycles
 SCF Done:  E(RB3LYP) =  -2052.35610405     A.U. after    8 cycles
 SCF Done:  E(RB3LYP) =  -2052.35610408     A.U. after    8 cycles
 Optimization completed.
    -- Stationary point found.
 Normal termination of Gaussian 09 at Sun Jan  9 22:54:54 2005.

 ----------------------------------------------------------------------
 #N Geom=AllCheck Guess=TCheck SCRF=Check GenChk RB3LYP/6-31G(d,p) Freq
 ----------------------------------------------------------------------

 x2-2-NO2-Ph-N2-OTf-v1-RB3LYP-6-311++G_dp
 ----------------------------------------
 Redundant internal coordinates taken from checkpoint file:
 Ph-N2-OTf-N2-Ph.chk
 Charge =  1 Multiplicity = 1

                         Standard orientation:
 ---------------------------------------------------------------------
 Center     Atomic      Atomic             Coordinates (Angstroms)
 Number     Number       Type             X           Y           Z
 ---------------------------------------------------------------------
      1          6           0       -3.819709   -0.500671    1.335513
      2          6           0       -4.065634    0.186828    0.139316
      3          6           0       -5.242889    0.940564   -0.059781
      4          6           0       -6.180703    1.005498    0.952366
      5          6           0       -5.949317    0.321106    2.154428
      6          6           0       -4.783955   -0.421041    2.341708
      7          1           0       -2.898592   -1.075359    1.438279
      8          1           0       -7.078631    1.589286    0.788636
      9          1           0       -6.691725    0.375335    2.943585
     10          1           0       -4.613091   -0.948621    3.273631
     11          7           0       -3.100240    0.070526   -0.852980
     12          7           0       -2.236728   -0.110650   -1.532227
     13         16           0        0.044363   -1.376916    0.486492
     14          8           0       -0.097822   -0.014728   -0.115278
     15          8           0        1.159257   -1.468872    1.460802
     16          8           0       -1.240450   -1.984248    0.898195
     17          6           0        0.604075   -2.430528   -0.940677
     18          9           0        1.778255   -1.960306   -1.408484
     19          9           0       -0.295550   -2.384968   -1.930598
     20          9           0        0.775489   -3.695299   -0.560803
     21          1           0        3.167274   -1.448040    0.973179
     22          6           0        4.001005   -0.859724    0.597853
     23          6           0        3.875000    0.535050    0.541516
     24          6           0        5.196692   -1.423681    0.151547
     25          6           0        4.911000    1.358047    0.051789
     26          6           0        6.225470   -0.617899   -0.335210
     27          1           0        5.313918   -2.501137    0.186562
     28          6           0        6.084400    0.776259   -0.387724
     29          1           0        7.150058   -1.067976   -0.680739
     30          1           0        6.871689    1.418428   -0.764153
     31          7           0        2.679662    1.068445    1.007200
     32          7           0        1.669394    1.309604    1.404983
     33          7           0        4.758227    2.823021    0.001519
     34          8           0        5.688578    3.472269   -0.444463
     35          8           0        3.689777    3.270588    0.421236
     36          7           0       -5.483064    1.662448   -1.322645
     37          8           0       -6.529642    2.278843   -1.429088
     38          8           0       -4.594425    1.580061   -2.171492
 ---------------------------------------------------------------------

 SCF Done:  E(RB3LYP) =  -2052.35610408     A.U. after    1 cycles

 The electronic state is 1-A.
 Alpha  occ. eigenvalues --  -89.20307 -24.82894 -24.82756 -24.82461 -19.32435
 Alpha  occ. eigenvalues --  -19.32336 -19.32205 -19.32101 -19.23220 -19.23031
 Alpha  occ. eigenvalues --  -19.22947 -14.71676 -14.71464 -14.67839 -14.67572
 Alpha  occ. eigenvalues --  -14.64779 -14.64541 -10.53145 -10.44867 -10.44688
 Alpha  occ. eigenvalues --  -10.42199 -10.42030 -10.37678 -10.37307 -10.36964
 Alpha  occ. eigenvalues --  -10.36905 -10.36807 -10.36751 -10.36325 -10.36134
 Alpha  occ. eigenvalues --   -8.22598  -6.19047  -6.19042  -6.18996  -1.40569
 Alpha  occ. eigenvalues --   -1.36985  -1.36767  -1.32687  -1.32423  -1.31899
 Alpha  occ. eigenvalues --   -1.31801  -1.21149  -1.19904  -1.19683  -1.08149
 Alpha  occ. eigenvalues --   -1.07738  -1.07573  -1.07386  -0.99451  -0.99279
 Alpha  occ. eigenvalues --   -0.95988  -0.95768  -0.88261  -0.88045  -0.83672
 Alpha  occ. eigenvalues --   -0.83474  -0.82037  -0.77960  -0.77735  -0.73874
 Alpha  occ. eigenvalues --   -0.73646  -0.72950  -0.69188  -0.68978  -0.68636
 Alpha  occ. eigenvalues --   -0.68427  -0.68282  -0.68109  -0.67335  -0.67169
 Alpha  occ. eigenvalues --   -0.66826  -0.66613  -0.65434  -0.65232  -0.64707
 Alpha  occ. eigenvalues --   -0.64615  -0.63603  -0.62933  -0.62873  -0.60855
 Alpha  occ. eigenvalues --   -0.60609  -0.60223  -0.59857  -0.56237  -0.56046
 Alpha  occ. eigenvalues --   -0.55050  -0.54812  -0.54312  -0.54112  -0.54029
 Alpha  occ. eigenvalues --   -0.53800  -0.53703  -0.52860  -0.52379  -0.51855
 Alpha  occ. eigenvalues --   -0.51742  -0.49813  -0.44975  -0.44810  -0.44710
 Alpha  occ. eigenvalues --   -0.44550  -0.44037  -0.43786  -0.43506  -0.43345
 Alpha  occ. eigenvalues --   -0.43120  -0.43065  -0.43027  -0.42936  -0.40204
 Alpha  occ. eigenvalues --   -0.39893  -0.38952  -0.36138
 Alpha virt. eigenvalues --   -0.26099  -0.25904  -0.22537  -0.22126  -0.21306
 Alpha virt. eigenvalues --   -0.21123  -0.15182  -0.15017  -0.13446  -0.13284
 Alpha virt. eigenvalues --   -0.06941  -0.06700  -0.00371  -0.00324  -0.00184

 Mulliken atomic charges:
              1
     1  C   -0.002502
     2  C    0.226392
     3  C    0.334805
     4  C   -0.099348
     5  C   -0.053307
     6  C   -0.089897
     7  H    0.232342
     8  H    0.191149
     9  H    0.167510
    10  H    0.169391
    11  N    0.124514
    12  N   -0.001150
    13  S    1.165700
    14  O   -0.616964
    15  O   -0.594717
    16  O   -0.578580
    17  C    0.577133
    18  F   -0.258308
    19  F   -0.238140
    20  F   -0.223674
    21  H    0.220550
    22  C   -0.000876
    23  C    0.230080
    24  C   -0.085749
    25  C    0.331613
    26  C   -0.052655
    27  H    0.170238
    28  C   -0.098293
    29  H    0.168580
    30  H    0.191654
    31  N    0.126882
    32  N    0.016565
    33  N    0.400339
    34  O   -0.336048
    35  O   -0.389393
    36  N    0.399918
    37  O   -0.337078
    38  O   -0.388677
 Sum of Mulliken atomic charges =   1.00000

 Dipole moment (field-independent basis, Debye):
    X=              0.7369    Y=              0.4513    Z=              3.9569  Tot=              4.0501
 Quadrupole moment (field-independent basis, Debye-Ang):
   XX=             -4.7276   YY=           -174.4630   ZZ=           -158.3346
   XY=            -10.7638   XZ=            -26.2158   YZ=              7.9648

  Exact polarizability: 339.744 -34.351 197.943 -49.405 -18.168 175.517
 Approx polarizability: 539.647 -74.806 338.026-123.779 -33.821 329.316

                     1                      2                      3
                     A                      A                      A
 Frequencies --     5.3852                 9.1211                12.2228
 Red. masses --     9.5667                10.9794                 9.4287
 Frc consts  --     0.0002                 0.0005                 0.0008
 IR Inten    --     3.6435                 1.2072                 1.4397

                     4                      5                      6
                     A                      A                      A
 Frequencies --    20.1671                25.1421                30.0641
 Red. masses --     9.0188                11.2190                11.2174
 Frc consts  --     0.0022                 0.0042                 0.0060
 IR Inten    --     1.5547                 4.5680                 2.4738

                     7                      8                      9
                     A                      A                      A
 Frequencies --    42.7515                47.9206                49.1314
 Red. masses --    12.1377                10.9066                15.0218
 Frc consts  --     0.0131                 0.0148                 0.0214
 IR Inten    --     1.2142                 2.3419                 2.0008

                    10                     11                     12
                     A                      A                      A
 Frequencies --    55.2791                60.1729                72.4856
 Red. masses --    13.9600                11.9816                 9.2059
 Frc consts  --     0.0251                 0.0256                 0.0285
 IR Inten    --     0.2631                 2.0665                 2.8977

                    13                     14                     15
                     A                      A                      A
 Frequencies --    92.3852               103.8348               120.9630
 Red. masses --    11.0059                10.9317                10.3897
 Frc consts  --     0.0553                 0.0694                 0.0896
 IR Inten    --     9.0323                38.1383                18.4413

                    16                     17                     18
                     A                      A                      A
 Frequencies --   128.5040               133.5615               189.8668
 Red. masses --     5.9346                 5.7256                 9.3157
 Frc consts  --     0.0577                 0.0602                 0.1979
 IR Inten    --     3.8702                 2.7380                 9.6761

                    19                     20                     21
                     A                      A                      A
 Frequencies --   192.6055               195.3227               209.1951
 Red. masses --     6.6456                 9.0644                12.9038
 Frc consts  --     0.1453                 0.2037                 0.3327
 IR Inten    --     0.3668                 2.3631                25.0410

                    22                     23                     24
                     A                      A                      A
 Frequencies --   212.4358               222.1587               245.7726
 Red. masses --    16.6708                13.4388                 8.0994
 Frc consts  --     0.4433                 0.3908                 0.2883
 IR Inten    --    10.2439                43.3083                 5.1697

                    25                     26                     27
                     A                      A                      A
 Frequencies --   250.0812               306.8528               332.8150
 Red. masses --     8.0502                17.7215                17.4737
 Frc consts  --     0.2966                 0.9831                 1.1404
 IR Inten    --     0.4461                 1.4447                 2.8194

                    28                     29                     30
                     A                      A                      A
 Frequencies --   345.2571               362.7782               363.7254
 Red. masses --    17.3962                10.5982                10.6697
 Frc consts  --     1.2218                 0.8218                 0.8317
 IR Inten    --    19.0753                 4.8399                 4.6775

                    31                     32                     33
                     A                      A                      A
 Frequencies --   398.5576               399.1102               434.7539
 Red. masses --     4.6220                 4.6336                13.7420
 Frc consts  --     0.4326                 0.4349                 1.5303
 IR Inten    --     5.0208                 1.1176                 1.7866

                    34                     35                     36
                     A                      A                      A
 Frequencies --   437.0120               439.7956               440.0628
 Red. masses --    10.1106                 4.3056                 4.8024
 Frc consts  --     1.1377                 0.4907                 0.5479
 IR Inten    --     1.4024                 0.4369                 1.0246

                    37                     38                     39
                     A                      A                      A
 Frequencies --   494.9563               504.0284               523.4118
 Red. masses --    17.1520                17.5810                 9.2053
 Frc consts  --     2.4757                 2.6315                 1.4859
 IR Inten    --    19.5447                58.0710                 0.5708

                    40                     41                     42
                     A                      A                      A
 Frequencies --   525.5294               554.1193               556.3407
 Red. masses --     9.2404                 5.8492                 5.8319
 Frc consts  --     1.5036                 1.0582                 1.0635
 IR Inten    --     0.0254                 3.8097                 5.8628

                    43                     44                     45
                     A                      A                      A
 Frequencies --   560.0314               564.0630               588.2590
 Red. masses --    17.3769                17.9694                 7.1664
 Frc consts  --     3.2111                 3.3685                 1.4611
 IR Inten    --     4.7348                25.1109                 0.9457

                    46                     47                     48
                     A                      A                      A
 Frequencies --   588.4904               620.0631               663.2653
 Red. masses --     7.1777                20.0965                 4.5547
 Frc consts  --     1.4646                 4.5524                 1.1806
 IR Inten    --     0.8969               124.5310                12.5430

                    49                     50                     51
                     A                      A                      A
 Frequencies --   665.3673               670.7197               671.4279
 Red. masses --     4.6262                 6.9282                 6.8940
 Frc consts  --     1.2067                 1.8363                 1.8311
 IR Inten    --    12.0600                 9.4352                 9.5165

                    52                     53                     54
                     A                      A                      A
 Frequencies --   736.6483               737.1552               758.3517
 Red. masses --     4.4699                 4.5231                18.2534
 Frc consts  --     1.4291                 1.4481                 6.1849
 IR Inten    --    21.2893                21.2063                 0.8583

                    55                     56                     57
                     A                      A                      A
 Frequencies --   782.4401               782.6355               810.1373
 Red. masses --     6.8729                 6.8688                 1.3774
 Frc consts  --     2.4791                 2.4788                 0.5326
 IR Inten    --     8.7844                10.2465                44.2923

                    58                     59                     60
                     A                      A                      A
 Frequencies --   814.0364               865.5034               865.6501
 Red. masses --     1.3721                10.1664                10.2065
 Frc consts  --     0.5357                 4.4870                 4.5062
 IR Inten    --    36.1717                18.6693                58.1861

                    61                     62                     63
                     A                      A                      A
 Frequencies --   936.7006               944.0896               985.4666
 Red. masses --     1.3259                 1.3303                14.9205
 Frc consts  --     0.6854                 0.6986                 8.5372
 IR Inten    --     4.2538                 1.3221               175.0292

                    64                     65                     66
                     A                      A                      A
 Frequencies --  1018.1641              1027.9380              1036.4876
 Red. masses --     1.3358                 1.3532                 1.3519
 Frc consts  --     0.8159                 0.8425                 0.8557
 IR Inten    --    15.4067                 4.7229                 1.8534

                    67                     68                     69
                     A                      A                      A
 Frequencies --  1046.8933              1058.1198              1060.3026
 Red. masses --     1.3301                 2.3920                 2.4676
 Frc consts  --     0.8589                 1.5779                 1.6345
 IR Inten    --     2.0925                 5.8362                 4.2274

                    70                     71                     72
                     A                      A                      A
 Frequencies --  1084.3562              1084.9587              1166.7170
 Red. masses --     4.5675                 4.3979                 3.1112
 Frc consts  --     3.1642                 3.0502                 2.4952
 IR Inten    --    27.2554                 8.2842                24.7276

                    73                     74                     75
                     A                      A                      A
 Frequencies --  1168.1307              1170.1578              1180.0766
 Red. masses --     2.4908                 5.1919                 2.3139
 Frc consts  --     2.0025                 4.1886                 1.8985
 IR Inten    --    67.9351               186.6367                25.3840

                    76                     77                     78
                     A                      A                      A
 Frequencies --  1183.9798              1199.6874              1203.4846
 Red. masses --     2.1675                 4.7838                 1.3130
 Frc consts  --     1.7902                 4.0566                 1.1205
 IR Inten    --    37.0884                60.8882                34.8006

                    79                     80                     81
                     A                      A                      A
 Frequencies --  1203.8761              1222.7433              1247.4703
 Red. masses --     1.1807                11.6520                13.2700
 Frc consts  --     1.0082                10.2641                12.1669
 IR Inten    --    13.7198                68.4120               669.5080

                    82                     83                     84
                     A                      A                      A
 Frequencies --  1259.0643              1301.1050              1306.9035
 Red. masses --    13.1479                 1.6485                 1.6635
 Frc consts  --    12.2801                 1.6443                 1.6740
 IR Inten    --   277.0078                 8.0754                10.6392

                    85                     86                     87
                     A                      A                      A
 Frequencies --  1383.2101              1383.9732              1393.2733
 Red. masses --     8.2324                 8.2185                 8.3005
 Frc consts  --     9.2801                 9.2746                 9.4935
 IR Inten    --   129.1260               195.1172                21.2998

                    88                     89                     90
                     A                      A                      A
 Frequencies --  1393.5155              1478.1971              1478.7312
 Red. masses --     8.3897                 2.1347                 2.1007
 Frc consts  --     9.5989                 2.7483                 2.7064
 IR Inten    --    65.5312                 3.8901                 7.2345

                    91                     92                     93
                     A                      A                      A
 Frequencies --  1512.1295              1515.0349              1606.4031
 Red. masses --     2.3882                 2.3113                 5.4728
 Frc consts  --     3.2174                 3.1257                 8.3209
 IR Inten    --     6.6793                 5.9023                44.6727

                    94                     95                     96
                     A                      A                      A
 Frequencies --  1606.8921              1629.1444              1630.1943
 Red. masses --     5.3090                 6.8746                 7.0085
 Frc consts  --     8.0767                10.7502                10.9738
 IR Inten    --    23.5746               151.0379                83.7646

                    97                     98                     99
                     A                      A                      A
 Frequencies --  1675.0887              1675.4506              2363.5635
 Red. masses --    12.0891                12.1751                13.9712
 Frc consts  --    19.9857                20.1366                45.9852
 IR Inten    --   210.3026                61.8747                53.6281

                   100                    101                    102
                     A                      A                      A
 Frequencies --  2377.3336              3134.2852              3182.9823
 Red. masses --    13.9741                 1.0994                 1.0971
 Frc consts  --    46.5322                 6.3631                 6.5488
 IR Inten    --    38.9083               335.6757               172.7800

                   103                    104                    105
                     A                      A                      A
 Frequencies --  3220.2787              3220.9081              3232.0057
 Red. masses --     1.0901                 1.0903                 1.0955
 Frc consts  --     6.6606                 6.6641                 6.7421
 IR Inten    --     0.2513                 0.6862                 2.8859

                   106                    107                    108
                     A                      A                      A
 Frequencies --  3232.6263              3245.0111              3245.1170
 Red. masses --     1.0956                 1.0942                 1.0942
 Frc consts  --     6.7453                 6.7889                 6.7888
 IR Inten    --     3.9294                16.7566                15.3085

 - Thermochemistry -
 -------------------
 Temperature   298.150 Kelvin.  Pressure   1.00000 Atm.
 Atom     1 has atomic number  6 and mass  12.00000

 Molecular mass:   449.01273 amu.
 Principal axes and moments of inertia in atomic units:
                           1         2         3
     Eigenvalues --  7341.01025********************
           X            0.99997  -0.00307  -0.00744
           Y            0.00296   0.99987  -0.01578
           Z            0.00749   0.01576   0.99985
 This molecule is an asymmetric top.
 Rotational symmetry number  1.
 Warning -- assumption of classical behavior for rotation
           may cause significant error
 Rotational temperatures (Kelvin)      0.01180     0.00320     0.00287
 Rotational constants (GHZ):           0.24584     0.06673     0.05985
 Zero-point vibrational energy     608911.8 (Joules/Mol)
                                  145.53341 (Kcal/Mol)
 Warning -- explicit consideration of  47 degrees of freedom as
           vibrations may cause significant error
 Vibrational temperatures:      7.75    13.12    17.59    29.02    36.17
          (Kelvin)             43.26    61.51    68.95    70.69    79.53
                               86.58   104.29   132.92   149.39   174.04
                              184.89   192.16   273.18   277.12   281.03
                              300.98   305.65   319.64   353.61   359.81
                              441.49   478.85   496.75   521.96   523.32
                              573.43   574.23   625.51   628.76   632.77
                              633.15   712.13   725.18   753.07   756.12
                              797.25   800.45   805.76   811.56   846.37
                              846.71   892.13   954.29   957.31   965.01
                              966.03  1059.87  1060.60  1091.10  1125.76
                             1126.04  1165.61  1171.22  1245.26  1245.48
                             1347.70  1358.33  1417.86  1464.91  1478.97
                             1491.27  1506.24  1522.40  1525.54  1560.14
                             1561.01  1678.64  1680.68  1683.59  1697.86
                             1703.48  1726.08  1731.54  1732.11  1759.25
                             1794.83  1811.51  1872.00  1880.34  1990.13
                             1991.23  2004.61  2004.96  2126.79  2127.56
                             2175.61  2179.79  2311.25  2311.96  2343.97
                             2345.48  2410.08  2410.60  3400.64  3420.45
                             4509.53  4579.60  4633.26  4634.16  4650.13
                             4651.02  4668.84  4668.99

 Zero-point correction=                           0.231922 (Hartree/Particle)
 Thermal correction to Energy=                    0.260515
 Thermal correction to Enthalpy=                  0.261459
 Thermal correction to Gibbs Free Energy=         0.163009
 Sum of electronic and zero-point Energies=          -2052.124182
 Sum of electronic and thermal Energies=             -2052.095589
 Sum of electronic and thermal Enthalpies=           -2052.094645
 Sum of electronic and thermal Free Energies=        -2052.193095

                     E (Thermal)             CV                S
                      KCal/Mol        Cal/Mol-Kelvin    Cal/Mol-Kelvin
 Total                  163.476             99.863            207.207
 Electronic               0.000              0.000              0.000
 Translational            0.889              2.981             44.195
 Rotational               0.889              2.981             37.035
 Vibrational            161.698             93.901            125.976
 Vibration     1          0.593              1.987              9.241
 Vibration     2          0.593              1.987              8.194
 Vibration     3          0.593              1.987              7.612
 Vibration     4          0.593              1.986              6.618
 Vibration     5          0.593              1.985              6.180
 Vibration     6          0.594              1.984              5.825
 Vibration     7          0.595              1.980              5.127
 Vibration     8          0.595              1.978              4.901
 Vibration     9          0.595              1.978              4.852
 Vibration    10          0.596              1.975              4.619
 Vibration    11          0.597              1.973              4.452
 Vibration    12          0.599              1.967              4.085
 Vibration    13          0.602              1.955              3.609
 Vibration    14          0.605              1.946              3.381
 Vibration    15          0.609              1.932              3.085
 Vibration    16          0.611              1.925              2.968
 Vibration    17          0.613              1.920              2.894
 Vibration    18          0.633              1.854              2.229
 Vibration    19          0.635              1.850              2.203
 Vibration    20          0.636              1.846              2.177
 Vibration    21          0.642              1.827              2.051
 Vibration    22          0.643              1.822              2.023
 Vibration    23          0.648              1.807              1.941
 Vibration    24          0.660              1.770              1.761
 Vibration    25          0.663              1.763              1.730
 Vibration    26          0.697              1.661              1.379
 Vibration    27          0.715              1.610              1.246
 Vibration    28          0.724              1.585              1.188
 Vibration    29          0.737              1.549              1.110
 Vibration    30          0.737              1.547              1.106
 Vibration    31          0.765              1.473              0.968
 Vibration    32          0.765              1.472              0.966
 Vibration    33          0.795              1.394              0.843
 Vibration    34          0.797              1.390              0.836
 Vibration    35          0.800              1.383              0.827
 Vibration    36          0.800              1.383              0.826
 Vibration    37          0.851              1.261              0.671
 Vibration    38          0.859              1.241              0.648
 Vibration    39          0.878              1.198              0.602
 Vibration    40          0.880              1.193              0.597
 Vibration    41          0.910              1.131              0.536
 Vibration    42          0.912              1.126              0.531
 Vibration    43          0.916              1.118              0.524
 Vibration    44          0.920              1.109              0.516
 Vibration    45          0.945              1.057              0.470
 Vibration    46          0.946              1.056              0.470
 Vibration    47          0.980              0.990              0.416

 Normal termination of Gaussian 09 at Sun Jan  9 23:30:23 2005.
