 Gaussian 09, Revision B.01,
 Gaussian 09:  EM64L-G09RevB.01 12-Aug-2010

 ----------------------------
 # opt freq rb3lyp/6-31G(d,p)
 ----------------------------

 ----------------------------------------
 x2-2-NO2-Ph-N2-OTf-v2-RB3LYP-6-311++G_dp
 ----------------------------------------
 Symbolic Z-matrix:
 Charge =  1 Multiplicity = 1

 SCF Done:  E(RB3LYP) =  -2052.29513560     A.U. after   18 cycles
 SCF Done:  E(RB3LYP) =  -2052.33743150     A.U. after   15 cycles
 SCF Done:  E(RB3LYP) =  -2052.34780259     A.U. after   15 cycles
 SCF Done:  E(RB3LYP) =  -2052.35088362     A.U. after   14 cycles
 SCF Done:  E(RB3LYP) =  -2052.34310359     A.U. after   16 cycles
 SCF Done:  E(RB3LYP) =  -2052.35144161     A.U. after   15 cycles
 SCF Done:  E(RB3LYP) =  -2052.35226490     A.U. after   14 cycles
 SCF Done:  E(RB3LYP) =  -2052.34754490     A.U. after   15 cycles
 SCF Done:  E(RB3LYP) =  -2052.35237365     A.U. after   15 cycles
 SCF Done:  E(RB3LYP) =  -2052.35262247     A.U. after   14 cycles
 SCF Done:  E(RB3LYP) =  -2052.35485425     A.U. after   11 cycles
 SCF Done:  E(RB3LYP) =  -2052.35485479     A.U. after    9 cycles
 SCF Done:  E(RB3LYP) =  -2052.35485507     A.U. after    9 cycles
 SCF Done:  E(RB3LYP) =  -2052.35485525     A.U. after    8 cycles
 SCF Done:  E(RB3LYP) =  -2052.35485533     A.U. after    8 cycles
 SCF Done:  E(RB3LYP) =  -2052.35485542     A.U. after    8 cycles
 SCF Done:  E(RB3LYP) =  -2052.35485548     A.U. after    8 cycles
 SCF Done:  E(RB3LYP) =  -2052.35485553     A.U. after    8 cycles
 SCF Done:  E(RB3LYP) =  -2052.35485559     A.U. after    8 cycles
 Optimization completed.
    -- Stationary point found.
 Normal termination of Gaussian 09 at Mon Jan 10 01:08:29 2005.

 ----------------------------------------------------------------------
 #N Geom=AllCheck Guess=TCheck SCRF=Check GenChk RB3LYP/6-31G(d,p) Freq
 ----------------------------------------------------------------------

 x2-2-NO2-Ph-N2-OTf-v2-RB3LYP-6-311++G_dp
 ----------------------------------------
 Redundant internal coordinates taken from checkpoint file:
 Ph-N2-OTf-N2-Ph.chk
 Charge =  1 Multiplicity = 1

                         Standard orientation:
 ---------------------------------------------------------------------
 Center     Atomic      Atomic             Coordinates (Angstroms)
 Number     Number       Type             X           Y           Z
 ---------------------------------------------------------------------
      1          6           0        3.789258    0.272050    1.604295
      2          6           0        4.198117   -0.197510    0.348698
      3          6           0        5.388823   -0.937399    0.181198
      4          6           0        6.176376   -1.206524    1.283947
      5          6           0        5.781627   -0.740126    2.546086
      6          6           0        4.602899   -0.012012    2.702323
      7          1           0        2.861391    0.838225    1.679113
      8          1           0        7.086701   -1.776814    1.142555
      9          1           0        6.406661   -0.953562    3.406693
     10          1           0        4.304107    0.344879    3.681800
     11          7           0        3.382515    0.122060   -0.730334
     12          7           0        2.627608    0.450875   -1.479111
     13         16           0        0.030089    1.173933    0.320870
     14          8           0        0.252165   -0.047532   -0.513449
     15          8           0       -1.138833    1.060531    1.223580
     16          8           0        1.272666    1.728544    0.904494
     17          6           0       -0.493033    2.456280   -0.920698
     18          9           0       -1.655109    2.060210   -1.492630
     19          9           0        0.426171    2.586574   -1.881369
     20          9           0       -0.693549    3.635555   -0.337963
     21          1           0       -1.796255   -0.725872   -0.484034
     22          6           0       -2.730228   -1.280755   -0.423284
     23          6           0       -3.911052   -0.675445    0.029522
     24          6           0       -2.792884   -2.626338   -0.788947
     25          6           0       -5.126523   -1.386841    0.119887
     26          6           0       -3.988768   -3.337475   -0.701565
     27          1           0       -1.889175   -3.110058   -1.142447
     28          6           0       -5.161021   -2.718424   -0.244831
     29          1           0       -4.021669   -4.383073   -0.988851
     30          1           0       -6.100401   -3.252845   -0.168347
     31          7           0       -3.833555    0.666319    0.378822
     32          7           0       -3.560910    1.718095    0.614601
     33          7           0        5.798634   -1.434053   -1.144784
     34          8           0        6.845757   -2.054639   -1.215652
     35          8           0        5.037051   -1.178091   -2.078466
     36          7           0       -6.357031   -0.730500    0.599910
     37          8           0       -6.252603    0.458044    0.905431
     38          8           0       -7.370299   -1.405771    0.655777
 ---------------------------------------------------------------------

 SCF Done:  E(RB3LYP) =  -2052.35485559     A.U. after    1 cycles

 The electronic state is 1-A.
 Alpha  occ. eigenvalues --  -89.20224 -24.83080 -24.82751 -24.82457 -19.32408
 Alpha  occ. eigenvalues --  -19.32403 -19.32327 -19.32299 -19.23081 -19.22975
 Alpha  occ. eigenvalues --  -19.22840 -14.71659 -14.71653 -14.67905 -14.67738
 Alpha  occ. eigenvalues --  -14.64791 -14.64682 -10.53105 -10.44924 -10.44858
 Alpha  occ. eigenvalues --  -10.42251 -10.42199 -10.37762 -10.37485 -10.37068
 Alpha  occ. eigenvalues --  -10.37000 -10.36969 -10.36904 -10.36388 -10.36301
 Alpha  occ. eigenvalues --   -8.22517  -6.18966  -6.18957  -6.18917  -1.40583
 Alpha  occ. eigenvalues --   -1.36972  -1.36965  -1.32781  -1.32577  -1.31939
 Alpha  occ. eigenvalues --   -1.31822  -1.21093  -1.19902  -1.19878  -1.08113
 Alpha  occ. eigenvalues --   -1.07748  -1.07674  -1.07387  -0.99516  -0.99432
 Alpha  occ. eigenvalues --   -0.96014  -0.95944  -0.88344  -0.88215  -0.83705
 Alpha  occ. eigenvalues --   -0.83647  -0.82031  -0.77922  -0.77903  -0.73959
 Alpha  occ. eigenvalues --   -0.73816  -0.72946  -0.69167  -0.69161  -0.68748
 Alpha  occ. eigenvalues --   -0.68569  -0.68323  -0.68142  -0.67527  -0.67303
 Alpha  occ. eigenvalues --   -0.66822  -0.66786  -0.65652  -0.65276  -0.64763
 Alpha  occ. eigenvalues --   -0.64642  -0.63345  -0.63089  -0.63006  -0.60934
 Alpha  occ. eigenvalues --   -0.60739  -0.60183  -0.60080  -0.56214  -0.56031
 Alpha  occ. eigenvalues --   -0.55024  -0.54847  -0.54286  -0.54261  -0.54091
 Alpha  occ. eigenvalues --   -0.53953  -0.53683  -0.53052  -0.52434  -0.52081
 Alpha  occ. eigenvalues --   -0.51818  -0.49869  -0.44943  -0.44904  -0.44773
 Alpha  occ. eigenvalues --   -0.44651  -0.44007  -0.43946  -0.43521  -0.43408
 Alpha  occ. eigenvalues --   -0.43396  -0.43110  -0.43084  -0.42955  -0.40119
 Alpha  occ. eigenvalues --   -0.39795  -0.38892  -0.36149
 Alpha virt. eigenvalues --   -0.26194  -0.26050  -0.22523  -0.22346  -0.21346
 Alpha virt. eigenvalues --   -0.21301  -0.15213  -0.15182  -0.13542  -0.13441
 Alpha virt. eigenvalues --   -0.06943  -0.06828  -0.00500  -0.00395  -0.00183

 Mulliken atomic charges:
              1
     1  C   -0.003914
     2  C    0.225809
     3  C    0.333445
     4  C   -0.099527
     5  C   -0.053597
     6  C   -0.087949
     7  H    0.231796
     8  H    0.191083
     9  H    0.167598
    10  H    0.169760
    11  N    0.130301
    12  N    0.000169
    13  S    1.212070
    14  O   -0.633086
    15  O   -0.602810
    16  O   -0.594571
    17  C    0.572216
    18  F   -0.270274
    19  F   -0.234471
    20  F   -0.221038
    21  H    0.214627
    22  C    0.018427
    23  C    0.233069
    24  C   -0.097392
    25  C    0.332970
    26  C   -0.052027
    27  H    0.164837
    28  C   -0.098591
    29  H    0.166655
    30  H    0.191770
    31  N    0.126646
    32  N    0.011339
    33  N    0.399625
    34  O   -0.337236
    35  O   -0.389283
    36  N    0.402101
    37  O   -0.385191
    38  O   -0.335357
 Sum of Mulliken atomic charges =   1.00000

 Dipole moment (field-independent basis, Debye):
    X=              3.1013    Y=             -7.7286    Z=              2.6018  Tot=              8.7246
 Quadrupole moment (field-independent basis, Debye-Ang):
   XX=            -53.9144   YY=           -146.6048   ZZ=           -156.1885
   XY=             18.6075   XZ=             38.3399   YZ=             -2.8312

  Exact polarizability: 312.090 -23.100 206.705   7.858  25.163 182.212
 Approx polarizability: 462.451 -43.061 396.543  24.833  54.392 339.053

                     1                      2                      3
                     A                      A                      A
 Frequencies --     8.4971                11.9299                13.7098
 Red. masses --     9.4957                 9.1025                 9.7796
 Frc consts  --     0.0004                 0.0008                 0.0011
 IR Inten    --     0.3180                 1.6790                 0.7262

                     4                      5                      6
                     A                      A                      A
 Frequencies --    18.3748                27.9444                30.1550
 Red. masses --     8.2724                13.6646                11.3884
 Frc consts  --     0.0016                 0.0063                 0.0061
 IR Inten    --     4.1805                 3.2255                 1.5942

                     7                      8                      9
                     A                      A                      A
 Frequencies --    40.5504                49.6240                51.7688
 Red. masses --    12.9111                12.8941                14.8568
 Frc consts  --     0.0125                 0.0187                 0.0235
 IR Inten    --     1.2439                 2.0519                 0.6410

                    10                     11                     12
                     A                      A                      A
 Frequencies --    59.4645                64.1032                67.5019
 Red. masses --    12.5631                10.1151                10.3463
 Frc consts  --     0.0262                 0.0245                 0.0278
 IR Inten    --     3.0585                 4.1281                 5.0541

                    13                     14                     15
                     A                      A                      A
 Frequencies --    82.4720                99.5968               117.8865
 Red. masses --    11.2616                10.3621                10.6798
 Frc consts  --     0.0451                 0.0606                 0.0874
 IR Inten    --     7.4499                10.0272                37.7171

                    16                     17                     18
                     A                      A                      A
 Frequencies --   126.8211               127.1366               189.4320
 Red. masses --     5.8100                 5.9966                 7.2641
 Frc consts  --     0.0551                 0.0571                 0.1536
 IR Inten    --     7.1901                 2.8021                 7.3896

                    19                     20                     21
                     A                      A                      A
 Frequencies --   190.9272               197.4154               201.3171
 Red. masses --     6.9741                10.9248                13.3294
 Frc consts  --     0.1498                 0.2509                 0.3183
 IR Inten    --     0.9353                 8.5509                12.0200

                    22                     23                     24
                     A                      A                      A
 Frequencies --   215.2162               222.9036               245.9905
 Red. masses --    14.3664                14.4857                 8.1033
 Frc consts  --     0.3921                 0.4241                 0.2889
 IR Inten    --    42.4283                14.5089                 2.3338

                    25                     26                     27
                     A                      A                      A
 Frequencies --   249.1294               307.5978               333.1761
 Red. masses --     8.0958                17.7642                17.4312
 Frc consts  --     0.2960                 0.9903                 1.1401
 IR Inten    --     8.2284                 3.1660                 3.3241

                    28                     29                     30
                     A                      A                      A
 Frequencies --   345.3375               362.6233               364.4669
 Red. masses --    17.4583                10.5793                10.6349
 Frc consts  --     1.2267                 0.8196                 0.8323
 IR Inten    --    11.4626                 4.5934                 6.5593

                    31                     32                     33
                     A                      A                      A
 Frequencies --   396.7971               398.4156               433.8563
 Red. masses --     4.4535                 4.6491                 9.0126
 Frc consts  --     0.4131                 0.4348                 0.9995
 IR Inten    --     1.0735                 2.3526                 1.4564

                    34                     35                     36
                     A                      A                      A
 Frequencies --   435.4589               437.6343               439.6080
 Red. masses --    11.7257                 5.0062                 4.5324
 Frc consts  --     1.3100                 0.5649                 0.5161
 IR Inten    --     2.0310                 0.1244                 0.5410

                    37                     38                     39
                     A                      A                      A
 Frequencies --   491.9238               503.8754               523.9459
 Red. masses --    17.4427                17.3330                 9.2251
 Frc consts  --     2.4869                 2.5928                 1.4921
 IR Inten    --    17.5171                49.1331                 0.0652

                    40                     41                     42
                     A                      A                      A
 Frequencies --   525.0989               554.6470               558.0717
 Red. masses --     9.3336                 5.8348                 7.7916
 Frc consts  --     1.5163                 1.0576                 1.4297
 IR Inten    --     1.0250                 5.4872                 2.8627

                    43                     44                     45
                     A                      A                      A
 Frequencies --   558.7158               564.5043               585.5120
 Red. masses --    10.4600                16.3477                 7.0678
 Frc consts  --     1.9238                 3.0693                 1.4276
 IR Inten    --     5.6920                25.1589                 4.0977

                    46                     47                     48
                     A                      A                      A
 Frequencies --   587.9856               617.8930               661.7086
 Red. masses --     7.1581                18.3620                 4.3716
 Frc consts  --     1.4581                 4.1304                 1.1278
 IR Inten    --     0.6551               134.4255                15.8351

                    49                     50                     51
                     A                      A                      A
 Frequencies --   664.7714               668.9600               671.3575
 Red. masses --     4.6062                 6.8205                 6.8721
 Frc consts  --     1.1993                 1.7983                 1.8249
 IR Inten    --    12.3046                17.0678                 7.2304

                    52                     53                     54
                     A                      A                      A
 Frequencies --   736.9545               737.2147               756.8498
 Red. masses --     4.5320                 4.5525                18.1535
 Frc consts  --     1.4502                 1.4578                 6.1268
 IR Inten    --    19.9544                21.0937                 1.7838

                    55                     56                     57
                     A                      A                      A
 Frequencies --   781.8429               783.6904               805.9805
 Red. masses --     6.8788                 6.8419                 1.3830
 Frc consts  --     2.4774                 2.4758                 0.5293
 IR Inten    --     9.2665                11.6181                34.2069

                    58                     59                     60
                     A                      A                      A
 Frequencies --   813.7655               864.0613               865.5436
 Red. masses --     1.3716                 9.9799                10.1969
 Frc consts  --     0.5351                 4.3900                 4.5008
 IR Inten    --    37.4372                35.8632                38.8532

                    61                     62                     63
                     A                      A                      A
 Frequencies --   926.9057               943.6354               986.1322
 Red. masses --     1.3441                 1.3297                12.6363
 Frc consts  --     0.6804                 0.6976                 7.2400
 IR Inten    --     1.6254                 1.6269               183.9817

                    64                     65                     66
                     A                      A                      A
 Frequencies --  1007.0839              1027.4817              1036.0954
 Red. masses --     1.3706                 1.3538                 1.3601
 Frc consts  --     0.8190                 0.8421                 0.8603
 IR Inten    --     9.3628                 5.2393                 0.2354

                    67                     68                     69
                     A                      A                      A
 Frequencies --  1046.2883              1059.9674              1061.1792
 Red. masses --     1.3357                 2.4337                 2.3854
 Frc consts  --     0.8615                 1.6110                 1.5827
 IR Inten    --     2.6945                 5.9796                 0.8843

                    70                     71                     72
                     A                      A                      A
 Frequencies --  1084.0558              1088.9368              1165.9774
 Red. masses --     4.5343                 5.4407                 3.2620
 Frc consts  --     3.1395                 3.8011                 2.6128
 IR Inten    --    21.2806                12.3706                25.0567

                    73                     74                     75
                     A                      A                      A
 Frequencies --  1167.4524              1172.2832              1181.6279
 Red. masses --     2.6677                 2.4362                 2.3328
 Frc consts  --     2.1423                 1.9726                 1.9190
 IR Inten    --    47.6968                84.9165                24.1395

                    76                     77                     78
                     A                      A                      A
 Frequencies --  1182.8219              1187.3905              1202.7796
 Red. masses --     8.5428                 3.1564                 1.1560
 Frc consts  --     7.0419                 2.6220                 0.9853
 IR Inten    --   139.8330               109.4236                14.6152

                    79                     80                     81
                     A                      A                      A
 Frequencies --  1204.0311              1228.9464              1247.9231
 Red. masses --     1.1757                12.0238                12.3888
 Frc consts  --     1.0042                10.6994                11.3673
 IR Inten    --     6.4922               126.8751               680.7266

                    82                     83                     84
                     A                      A                      A
 Frequencies --  1264.1149              1298.2345              1304.7131
 Red. masses --    12.8246                 1.6284                 1.6629
 Frc consts  --    12.0744                 1.6170                 1.6678
 IR Inten    --   285.3166                 8.0702                 8.1247

                    85                     86                     87
                     A                      A                      A
 Frequencies --  1381.3550              1383.6796              1392.8301
 Red. masses --     8.4967                 8.0753                 8.5434
 Frc consts  --     9.5523                 9.1092                 9.7652
 IR Inten    --   198.7967               160.8702                41.8991

                    88                     89                     90
                     A                      A                      A
 Frequencies --  1393.3067              1478.0389              1479.9368
 Red. masses --     8.7869                 2.1077                 2.1708
 Frc consts  --    10.0503                 2.7129                 2.8013
 IR Inten    --    39.8329                 5.6681                 5.0767

                    91                     92                     93
                     A                      A                      A
 Frequencies --  1507.2211              1513.3966              1606.4651
 Red. masses --     2.4000                 2.3409                 5.3985
 Frc consts  --     3.2123                 3.1590                 8.2086
 IR Inten    --    10.0712                 6.6561                38.1885

                    94                     95                     96
                     A                      A                      A
 Frequencies --  1606.5949              1629.2331              1630.6318
 Red. masses --     5.4415                 6.8991                 6.9417
 Frc consts  --     8.2752                10.7898                10.8750
 IR Inten    --    45.7859               117.8530               109.8761

                    97                     98                     99
                     A                      A                      A
 Frequencies --  1675.1495              1675.9339              2368.6482
 Red. masses --    12.1353                12.1577                13.9719
 Frc consts  --    20.0635                20.1194                46.1856
 IR Inten    --   141.7728               117.2442                49.2277

                   100                    101                    102
                     A                      A                      A
 Frequencies --  2380.9776              3151.3662              3171.5117
 Red. masses --    13.9743                 1.0984                 1.0979
 Frc consts  --    46.6758                 6.4269                 6.5063
 IR Inten    --    59.6772               296.6318               310.4319

                   103                    104                    105
                     A                      A                      A
 Frequencies --  3220.2037              3220.2444              3231.9644
 Red. masses --     1.0901                 1.0902                 1.0955
 Frc consts  --     6.6604                 6.6612                 6.7422
 IR Inten    --     0.3569                 0.3650                 3.0166

                   106                    107                    108
                     A                      A                      A
 Frequencies --  3233.1748              3245.1730              3245.2024
 Red. masses --     1.0953                 1.0943                 1.0942
 Frc consts  --     6.7460                 6.7896                 6.7891
 IR Inten    --     4.1269                18.3911                12.7822

 - Thermochemistry -
 -------------------
 Temperature   298.150 Kelvin.  Pressure   1.00000 Atm.
 Atom     1 has atomic number  6 and mass  12.00000

 Molecular mass:   449.01273 amu.
 Principal axes and moments of inertia in atomic units:
                           1         2         3
     Eigenvalues --  6784.17536********************
           X            0.99995   0.00513   0.00811
           Y           -0.00531   0.99973   0.02244
           Z           -0.00799  -0.02248   0.99972
 This molecule is an asymmetric top.
 Rotational symmetry number  1.
 Warning -- assumption of classical behavior for rotation
           may cause significant error
 Rotational temperatures (Kelvin)      0.01277     0.00293     0.00271
 Rotational constants (GHZ):           0.26602     0.06109     0.05649
 Zero-point vibrational energy     608588.3 (Joules/Mol)
                                  145.45608 (Kcal/Mol)
 Warning -- explicit consideration of  47 degrees of freedom as
           vibrations may cause significant error
 Vibrational temperatures:     12.23    17.16    19.73    26.44    40.21
          (Kelvin)             43.39    58.34    71.40    74.48    85.56
                               92.23    97.12   118.66   143.30   169.61
                              182.47   182.92   272.55   274.70   284.04
                              289.65   309.65   320.71   353.92   358.44
                              442.56   479.37   496.86   521.73   524.39
                              570.90   573.23   624.22   626.53   629.66
                              632.50   707.77   724.96   753.84   755.50
                              798.01   802.94   803.87   812.19   842.42
                              845.98   889.01   952.05   956.46   962.48
                              965.93  1060.31  1060.69  1088.94  1124.90
                             1127.55  1159.62  1170.83  1243.19  1245.32
                             1333.61  1357.68  1418.82  1448.97  1478.32
                             1490.71  1505.37  1525.05  1526.80  1559.71
                             1566.74  1677.58  1679.70  1686.65  1700.10
                             1701.81  1708.39  1730.53  1732.33  1768.18
                             1795.48  1818.78  1867.87  1877.19  1987.46
                             1990.80  2003.97  2004.66  2126.57  2129.30
                             2168.55  2177.44  2311.34  2311.53  2344.10
                             2346.11  2410.16  2411.29  3407.95  3425.69
                             4534.11  4563.09  4633.15  4633.21  4650.07
                             4651.81  4669.07  4669.12

 Zero-point correction=                           0.231799 (Hartree/Particle)
 Thermal correction to Energy=                    0.260434
 Thermal correction to Enthalpy=                  0.261378
 Thermal correction to Gibbs Free Energy=         0.163525
 Sum of electronic and zero-point Energies=          -2052.123057
 Sum of electronic and thermal Energies=             -2052.094422
 Sum of electronic and thermal Enthalpies=           -2052.093478
 Sum of electronic and thermal Free Energies=        -2052.191330

                     E (Thermal)             CV                S
                      KCal/Mol        Cal/Mol-Kelvin    Cal/Mol-Kelvin
 Total                  163.425             99.960            205.949
 Electronic               0.000              0.000              0.000
 Translational            0.889              2.981             44.195
 Rotational               0.889              2.981             37.102
 Vibrational            161.647             93.998            124.652
 Vibration     1          0.593              1.987              8.335
 Vibration     2          0.593              1.987              7.660
 Vibration     3          0.593              1.986              7.384
 Vibration     4          0.593              1.986              6.803
 Vibration     5          0.593              1.984              5.970
 Vibration     6          0.594              1.984              5.819
 Vibration     7          0.594              1.981              5.232
 Vibration     8          0.595              1.978              4.832
 Vibration     9          0.596              1.977              4.749
 Vibration    10          0.597              1.974              4.475
 Vibration    11          0.597              1.971              4.327
 Vibration    12          0.598              1.970              4.225
 Vibration    13          0.600              1.961              3.831
 Vibration    14          0.604              1.949              3.462
 Vibration    15          0.608              1.934              3.135
 Vibration    16          0.611              1.926              2.994
 Vibration    17          0.611              1.926              2.989
 Vibration    18          0.633              1.854              2.233
 Vibration    19          0.634              1.852              2.219
 Vibration    20          0.637              1.843              2.157
 Vibration    21          0.638              1.838              2.121
 Vibration    22          0.645              1.818              1.999
 Vibration    23          0.649              1.806              1.935
 Vibration    24          0.660              1.769              1.759
 Vibration    25          0.662              1.764              1.737
 Vibration    26          0.697              1.659              1.375
 Vibration    27          0.715              1.609              1.245
 Vibration    28          0.724              1.585              1.187
 Vibration    29          0.736              1.549              1.111
 Vibration    30          0.738              1.545              1.103
 Vibration    31          0.763              1.477              0.974
 Vibration    32          0.765              1.474              0.968
 Vibration    33          0.795              1.396              0.846
 Vibration    34          0.796              1.393              0.841
 Vibration    35          0.798              1.388              0.834
 Vibration    36          0.800              1.384              0.828
 Vibration    37          0.848              1.268              0.679
 Vibration    38          0.859              1.241              0.649
 Vibration    39          0.879              1.197              0.601
 Vibration    40          0.880              1.194              0.598
 Vibration    41          0.910              1.130              0.535
 Vibration    42          0.914              1.122              0.528
 Vibration    43          0.914              1.121              0.526
 Vibration    44          0.920              1.108              0.515
 Vibration    45          0.943              1.063              0.475
 Vibration    46          0.945              1.057              0.471
 Vibration    47          0.978              0.994              0.420

 Normal termination of Gaussian 09 at Mon Jan 10 01:43:55 2005.
