 Gaussian 09, Revision B.01,
 Gaussian 09:  EM64L-G09RevB.01 12-Aug-2010

 ------------------------------------------------
 #p Temperature=298.15 opt freq rb3lyp/6-31G(d,p)
 ------------------------------------------------

 -------------------------------------
 x2-3-NO2-Ph-N2-OTf-v2-RB3LYP-6-31G_dp
 -------------------------------------
 Symbolic Z-matrix:
 Charge =  1 Multiplicity = 1

 SCF Done:  E(RB3LYP) =  -2052.36169429     A.U. after   18 cycles
 SCF Done:  E(RB3LYP) =  -2052.36168868     A.U. after   10 cycles
 SCF Done:  E(RB3LYP) =  -2052.36157773     A.U. after   14 cycles
 SCF Done:  E(RB3LYP) =  -2052.36174116     A.U. after   13 cycles
 SCF Done:  E(RB3LYP) =  -2052.36168708     A.U. after   12 cycles
 SCF Done:  E(RB3LYP) =  -2052.36178101     A.U. after   12 cycles
 SCF Done:  E(RB3LYP) =  -2052.36181754     A.U. after   13 cycles
 SCF Done:  E(RB3LYP) =  -2052.36185741     A.U. after   13 cycles
 SCF Done:  E(RB3LYP) =  -2052.36190008     A.U. after   13 cycles
 SCF Done:  E(RB3LYP) =  -2052.36198991     A.U. after   15 cycles
 SCF Done:  E(RB3LYP) =  -2052.36252322     A.U. after    8 cycles
 SCF Done:  E(RB3LYP) =  -2052.36252366     A.U. after    8 cycles
 SCF Done:  E(RB3LYP) =  -2052.36252408     A.U. after    8 cycles
 SCF Done:  E(RB3LYP) =  -2052.36252431     A.U. after    8 cycles
 SCF Done:  E(RB3LYP) =  -2052.36252453     A.U. after    8 cycles
 SCF Done:  E(RB3LYP) =  -2052.36252473     A.U. after    8 cycles
 SCF Done:  E(RB3LYP) =  -2052.36252501     A.U. after    8 cycles
 SCF Done:  E(RB3LYP) =  -2052.36252517     A.U. after    8 cycles
 SCF Done:  E(RB3LYP) =  -2052.36252513     A.U. after    7 cycles
 Optimization completed.
    -- Stationary point found.
 Normal termination of Gaussian 09 at Thu Feb 24 03:36:44 2005.

 ----------------------------------------------------------------------
 #P Geom=AllCheck Guess=TCheck SCRF=Check GenChk RB3LYP/6-31G(d,p) Freq
 ----------------------------------------------------------------------

 x2-3-NO2-Ph-N2-OTf-v2-RB3LYP-6-31G_dp
 -------------------------------------
 Redundant internal coordinates taken from checkpoint file:
 /home/ubuntu/g09/Gau-12171.chk
 Charge =  1 Multiplicity = 1

                         Standard orientation:
 ---------------------------------------------------------------------
 Center     Atomic      Atomic             Coordinates (Angstroms)
 Number     Number       Type             X           Y           Z
 ---------------------------------------------------------------------
      1          6           0        3.771726   -0.429734    1.329104
      2          6           0        3.978252   -0.519810   -0.058324
      3          6           0        5.209107   -0.849460   -0.650007
      4          6           0        6.254479   -1.093558    0.221356
      5          6           0        6.107038   -1.019956    1.607963
      6          6           0        4.863638   -0.688017    2.152001
      7          1           0        2.794523   -0.146042    1.704652
      8          1           0        5.355411   -0.915064   -1.721438
      9          1           0        6.967427   -1.221520    2.235748
     10          1           0        4.744485   -0.625081    3.227632
     11          7           0        2.924766   -0.287550   -0.934486
     12          7           0        2.157940   -0.145589   -1.732014
     13         16           0       -0.097438    1.012158    0.339783
     14          8           0       -0.224228    0.089189   -0.830018
     15          8           0       -1.307383    1.053841    1.188927
     16          8           0        1.203622    0.898565    1.036575
     17          6           0       -0.032882    2.699337   -0.439505
     18          9           0       -1.206934    2.952496   -1.053924
     19          9           0        0.944244    2.745969   -1.354779
     20          9           0        0.179314    3.641363    0.476180
     21          1           0       -2.273272   -0.394906   -0.728652
     22          6           0       -3.300171   -0.711497   -0.550650
     23          6           0       -4.247563    0.160448    0.018601
     24          6           0       -3.738781   -1.995629   -0.858171
     25          6           0       -5.582028   -0.182646    0.289318
     26          6           0       -5.056096   -2.386240   -0.603306
     27          1           0       -3.041676   -2.699478   -1.298218
     28          6           0       -5.949130   -1.475103   -0.035559
     29          1           0       -6.296629    0.503907    0.727446
     30          1           0       -5.408737   -3.384585   -0.835925
     31          7           0       -3.862377    1.453976    0.326164
     32          7           0       -3.559229    2.495385    0.567248
     33          7           0        7.576058   -1.445897   -0.355186
     34          8           0        8.484331   -1.653969    0.437610
     35          8           0        7.646146   -1.499505   -1.577917
     36          7           0       -7.347476   -1.893679    0.233369
     37          8           0       -7.642745   -3.044037   -0.060603
     38          8           0       -8.087924   -1.051027    0.726971
 ---------------------------------------------------------------------

 SCF Done:  E(RB3LYP) =  -2052.36252513     A.U. after    1 cycles

 The electronic state is 1-A.
 Alpha  occ. eigenvalues --  -89.20889 -24.83531 -24.83336 -24.82999 -19.30631
 Alpha  occ. eigenvalues --  -19.30539 -19.30351 -19.30249 -19.23835 -19.23609
 Alpha  occ. eigenvalues --  -19.23496 -14.69831 -14.69539 -14.69435 -14.68087
 Alpha  occ. eigenvalues --  -14.66202 -14.65171 -10.53676 -10.44942 -10.44431
 Alpha  occ. eigenvalues --  -10.40463 -10.40082 -10.39498 -10.39017 -10.38132
 Alpha  occ. eigenvalues --  -10.37684 -10.37609 -10.37234 -10.36533 -10.36122
 Alpha  occ. eigenvalues --   -8.23173  -6.19627  -6.19617  -6.19569  -1.41133
 Alpha  occ. eigenvalues --   -1.35120  -1.34827  -1.34350  -1.33037  -1.32485
 Alpha  occ. eigenvalues --   -1.32380  -1.21815  -1.18103  -1.17802  -1.08826
 Alpha  occ. eigenvalues --   -1.08210  -1.08160  -1.07392  -1.00972  -1.00319
 Alpha  occ. eigenvalues --   -0.94952  -0.94517  -0.88117  -0.87565  -0.85044
 Alpha  occ. eigenvalues --   -0.84653  -0.82591  -0.77560  -0.77099  -0.73598
 Alpha  occ. eigenvalues --   -0.72128  -0.71691  -0.69524  -0.69115  -0.68879
 Alpha  occ. eigenvalues --   -0.68741  -0.68503  -0.68379  -0.68279  -0.67606
 Alpha  occ. eigenvalues --   -0.65731  -0.65527  -0.65432  -0.65417  -0.65065
 Alpha  occ. eigenvalues --   -0.64828  -0.63814  -0.63365  -0.63024  -0.61560
 Alpha  occ. eigenvalues --   -0.61071  -0.60532  -0.60196  -0.57056  -0.56754
 Alpha  occ. eigenvalues --   -0.55824  -0.55613  -0.54917  -0.54737  -0.54277
 Alpha  occ. eigenvalues --   -0.54209  -0.53714  -0.53516  -0.53119  -0.52655
 Alpha  occ. eigenvalues --   -0.52413  -0.50401  -0.44730  -0.44301  -0.44133
 Alpha  occ. eigenvalues --   -0.43844  -0.43449  -0.43193  -0.42894  -0.42799
 Alpha  occ. eigenvalues --   -0.42614  -0.42498  -0.41586  -0.41300  -0.40834
 Alpha  occ. eigenvalues --   -0.40478  -0.39523  -0.36984
 Alpha virt. eigenvalues --   -0.26064  -0.25421  -0.23963  -0.22797  -0.21811
 Alpha virt. eigenvalues --   -0.21492  -0.15744  -0.15344  -0.12789  -0.12392
 Alpha virt. eigenvalues --   -0.06678  -0.06286  -0.00869  -0.00556  -0.00208

 Mulliken atomic charges:
              1
     1  C   -0.002272
     2  C    0.216057
     3  C   -0.034336
     4  C    0.238327
     5  C   -0.042621
     6  C   -0.104303
     7  H    0.216984
     8  H    0.199436
     9  H    0.192200
    10  H    0.169335
    11  N    0.141775
    12  N   -0.019328
    13  S    1.175251
    14  O   -0.612406
    15  O   -0.601014
    16  O   -0.591395
    17  C    0.577614
    18  F   -0.259864
    19  F   -0.243846
    20  F   -0.221487
    21  H    0.218315
    22  C    0.023095
    23  C    0.222934
    24  C   -0.117644
    25  C   -0.036948
    26  C   -0.039536
    27  H    0.166341
    28  C    0.239538
    29  H    0.203398
    30  H    0.192480
    31  N    0.149467
    32  N   -0.006837
    33  N    0.410215
    34  O   -0.352278
    35  O   -0.363595
    36  N    0.410593
    37  O   -0.352394
    38  O   -0.361250
 Sum of Mulliken atomic charges =   1.00000

 Dipole moment (field-independent basis, Debye):
    X=             -0.6093    Y=             -2.6112    Z=             -0.2328  Tot=              2.6915
 Quadrupole moment (field-independent basis, Debye-Ang):
   XX=            -86.4835   YY=           -156.0158   ZZ=           -158.0192
   XY=            -10.1669   XZ=             18.2990   YZ=              0.3806

  Exact polarizability: 342.940  -6.746 192.896   1.991  20.178 172.050
 Approx polarizability: 469.171 -11.666 361.071  22.444  54.507 349.307

                     1                      2                      3
                     A                      A                      A
 Frequencies --     6.8395                10.3163                15.7262
 Red. masses --    12.9137                 9.3297                 9.1370
 Frc consts  --     0.0004                 0.0006                 0.0013
 IR Inten    --     0.1422                 1.1721                 1.7029

                     4                      5                      6
                     A                      A                      A
 Frequencies --    17.3981                24.9795                31.1749
 Red. masses --     7.5293                12.9268                12.2762
 Frc consts  --     0.0013                 0.0048                 0.0070
 IR Inten    --     0.9957                 5.2619                 2.5222

                     7                      8                      9
                     A                      A                      A
 Frequencies --    38.3153                52.8068                56.5552
 Red. masses --    13.5256                16.2312                12.1588
 Frc consts  --     0.0117                 0.0267                 0.0229
 IR Inten    --     0.9895                 2.0600                 0.7211

                    10                     11                     12
                     A                      A                      A
 Frequencies --    58.7583                63.8976                70.7411
 Red. masses --    13.3225                10.7447                10.7116
 Frc consts  --     0.0271                 0.0258                 0.0316
 IR Inten    --     1.0616                 4.1473                12.7226

                    13                     14                     15
                     A                      A                      A
 Frequencies --    79.6426               103.0264               112.8359
 Red. masses --     8.8540                13.8332                12.2087
 Frc consts  --     0.0331                 0.0865                 0.0916
 IR Inten    --     3.1772                 5.0437                46.0006

                    16                     17                     18
                     A                      A                      A
 Frequencies --   139.9088               142.9145               153.2848
 Red. masses --     7.2842                 6.5400                12.3403
 Frc consts  --     0.0840                 0.0787                 0.1708
 IR Inten    --     6.1142                 0.5035                15.6559

                    19                     20                     21
                     A                      A                      A
 Frequencies --   183.0276               187.3139               198.5351
 Red. masses --     5.3916                 5.3986                15.1590
 Frc consts  --     0.1064                 0.1116                 0.3520
 IR Inten    --     2.5786                 4.8004                 2.3112

                    22                     23                     24
                     A                      A                      A
 Frequencies --   203.9315               212.1369               257.3743
 Red. masses --    12.9508                16.3688                 7.4101
 Frc consts  --     0.3173                 0.4340                 0.2892
 IR Inten    --    30.3579                 3.4291                 0.4654

                    25                     26                     27
                     A                      A                      A
 Frequencies --   273.0664               305.5390               332.9749
 Red. masses --     8.1924                17.7448                17.5322
 Frc consts  --     0.3599                 0.9760                 1.1453
 IR Inten    --     2.7980                 1.1135                 1.8953

                    28                     29                     30
                     A                      A                      A
 Frequencies --   343.3332               380.7822               385.0320
 Red. masses --    17.4246                10.7856                10.5444
 Frc consts  --     1.2102                 0.9214                 0.9210
 IR Inten    --    15.3593                16.0808                16.4488

                    31                     32                     33
                     A                      A                      A
 Frequencies --   400.0884               400.8491               434.2462
 Red. masses --     4.2976                 4.2542                 4.1327
 Frc consts  --     0.4053                 0.4027                 0.4592
 IR Inten    --     0.0907                 0.2174                 1.0609

                    34                     35                     36
                     A                      A                      A
 Frequencies --   437.6109               445.9751               448.6820
 Red. masses --     4.2200                 9.3679                 9.0241
 Frc consts  --     0.4761                 1.0978                 1.0704
 IR Inten    --     0.8179                 2.5845                 8.4082

                    37                     38                     39
                     A                      A                      A
 Frequencies --   493.5976               499.1404               505.0519
 Red. masses --    15.3614                11.5762                15.8851
 Frc consts  --     2.2051                 1.6993                 2.3873
 IR Inten    --    15.2250                11.4560                43.5452

                    40                     41                     42
                     A                      A                      A
 Frequencies --   515.6441               559.1340               562.2425
 Red. masses --    10.2885                15.5088                 6.9066
 Frc consts  --     1.6118                 2.8567                 1.2864
 IR Inten    --     6.0032                 2.4505                15.7203

                    43                     44                     45
                     A                      A                      A
 Frequencies --   563.8170               566.8640               568.5190
 Red. masses --     8.4861                10.9975                 8.2490
 Frc consts  --     1.5894                 2.0821                 1.5709
 IR Inten    --     9.0136                11.0923                 8.9349

                    46                     47                     48
                     A                      A                      A
 Frequencies --   574.2436               618.0944               656.2979
 Red. masses --     7.0181                18.3349                 2.9736
 Frc consts  --     1.3635                 4.1270                 0.7546
 IR Inten    --     4.1532               134.7609                17.0569

                    49                     50                     51
                     A                      A                      A
 Frequencies --   656.7287               673.8140               675.2947
 Red. masses --     2.8977                 7.3164                 7.4421
 Frc consts  --     0.7363                 1.9572                 1.9996
 IR Inten    --    12.2784                 3.1568                 1.9191

                    52                     53                     54
                     A                      A                      A
 Frequencies --   737.4424               737.9935               757.8767
 Red. masses --     5.0703                 5.1562                18.2857
 Frc consts  --     1.6246                 1.6546                 6.1881
 IR Inten    --    24.7433                24.9614                 1.3415

                    55                     56                     57
                     A                      A                      A
 Frequencies --   798.3182               798.9989               837.1101
 Red. masses --    10.7876                10.7229                 1.3603
 Frc consts  --     4.0507                 4.0333                 0.5616
 IR Inten    --    24.2487                30.0536                19.3507

                    58                     59                     60
                     A                      A                      A
 Frequencies --   840.1600               909.9176               910.5726
 Red. masses --     1.3614                 6.8916                 6.7418
 Frc consts  --     0.5662                 3.3618                 3.2935
 IR Inten    --    17.6223                84.1443                16.8132

                    61                     62                     63
                     A                      A                      A
 Frequencies --   934.2795               934.3774               989.7731
 Red. masses --     1.4781                 1.4727                 6.8382
 Frc consts  --     0.7602                 0.7575                 3.9470
 IR Inten    --    11.8680                12.8666               156.8365

                    64                     65                     66
                     A                      A                      A
 Frequencies --   996.5235              1003.2499              1010.7340
 Red. masses --     1.3695                 1.4833                 6.0769
 Frc consts  --     0.8013                 0.8796                 3.6577
 IR Inten    --     5.7642                26.2441                 9.0810

                    67                     68                     69
                     A                      A                      A
 Frequencies --  1013.2793              1032.0451              1036.7221
 Red. masses --     6.0786                 1.3446                 1.3416
 Frc consts  --     3.6772                 0.8438                 0.8496
 IR Inten    --     1.7014                 1.0416                 4.2877

                    70                     71                     72
                     A                      A                      A
 Frequencies --  1092.2959              1092.8813              1115.8221
 Red. masses --     1.6582                 1.6688                 1.5568
 Frc consts  --     1.1656                 1.1744                 1.1420
 IR Inten    --   150.8415                44.8570                22.7139

                    73                     74                     75
                     A                      A                      A
 Frequencies --  1121.4155              1158.8810              1164.6169
 Red. masses --     1.6345                 7.0546                 6.1352
 Frc consts  --     1.2111                 5.5821                 4.9028
 IR Inten    --     2.5750                59.4571                38.7975

                    76                     77                     78
                     A                      A                      A
 Frequencies --  1180.3023              1198.1934              1199.3379
 Red. masses --    10.7541                11.6111                 1.2273
 Frc consts  --     8.8269                 9.8215                 1.0401
 IR Inten    --   114.8002                77.6926                93.2536

                    79                     80                     81
                     A                      A                      A
 Frequencies --  1210.1048              1224.9295              1255.4531
 Red. masses --     1.2066                10.5949                12.6380
 Frc consts  --     1.0410                 9.3663                11.7363
 IR Inten    --    46.2281                61.4130               709.3102

                    82                     83                     84
                     A                      A                      A
 Frequencies --  1262.0798              1306.8542              1310.5373
 Red. masses --    13.1752                 1.3815                 1.4062
 Frc consts  --    12.3646                 1.3902                 1.4230
 IR Inten    --   283.7196                 0.2437                 1.2189

                    85                     86                     87
                     A                      A                      A
 Frequencies --  1381.5805              1382.7164              1393.0881
 Red. masses --     8.6906                 8.7063                14.1624
 Frc consts  --     9.7735                 9.8073                16.1937
 IR Inten    --     0.3821                 1.3229               435.4658

                    88                     89                     90
                     A                      A                      A
 Frequencies --  1393.8208              1468.8546              1475.4037
 Red. masses --    14.1201                 2.6520                 2.5885
 Frc consts  --    16.1622                 3.3712                 3.3198
 IR Inten    --    47.7294                 2.6973                17.1480

                    91                     92                     93
                     A                      A                      A
 Frequencies --  1495.3826              1495.5461              1612.0825
 Red. masses --     2.1968                 2.3196                 6.2478
 Frc consts  --     2.8943                 3.0568                 9.5665
 IR Inten    --    17.4761                22.3381                 8.2848

                    94                     95                     96
                     A                      A                      A
 Frequencies --  1612.7011              1626.0570              1626.3013
 Red. masses --     6.5557                 6.4034                 6.3592
 Frc consts  --    10.0456                 9.9755                 9.9095
 IR Inten    --    13.5549                43.8358                17.5250

                    97                     98                     99
                     A                      A                      A
 Frequencies --  1686.9600              1687.5895              2339.9846
 Red. masses --    12.3552                12.4154                13.9459
 Frc consts  --    20.7162                20.8327                44.9908
 IR Inten    --   200.7785               209.0192                55.0131

                   100                    101                    102
                     A                      A                      A
 Frequencies --  2387.7113              3152.2393              3222.4498
 Red. masses --    13.9518                 1.0999                 1.0938
 Frc consts  --    46.8645                 6.4392                 6.6920
 IR Inten    --   155.4635               421.1088               113.5969

                   103                    104                    105
                     A                      A                      A
 Frequencies --  3229.8748              3231.2461              3242.4804
 Red. masses --     1.0916                 1.0938                 1.0948
 Frc consts  --     6.7092                 6.7284                 6.7815
 IR Inten    --     5.0986                44.2794                13.6314

                   106                    107                    108
                     A                      A                      A
 Frequencies --  3243.2783              3245.5541              3246.4910
 Red. masses --     1.0949                 1.0943                 1.0941
 Frc consts  --     6.7859                 6.7913                 6.7942
 IR Inten    --    11.1002                25.0558                21.2971

 - Thermochemistry -
 -------------------
 Temperature   298.150 Kelvin.  Pressure   1.00000 Atm.
 Atom     1 has atomic number  6 and mass  12.00000

 Molecular mass:   449.01273 amu.
 Principal axes and moments of inertia in atomic units:
                           1         2         3
     Eigenvalues --  6283.21933********************
           X            0.99999   0.00086   0.00330
           Y           -0.00089   0.99996   0.00859
           Z           -0.00329  -0.00859   0.99996
 This molecule is an asymmetric top.
 Rotational symmetry number  1.
 Warning -- assumption of classical behavior for rotation
           may cause significant error
 Rotational temperatures (Kelvin)      0.01378     0.00234     0.00213
 Rotational constants (GHZ):           0.28723     0.04868     0.04446
 Zero-point vibrational energy     608603.6 (Joules/Mol)
                                  145.45975 (Kcal/Mol)
 Warning -- explicit consideration of  47 degrees of freedom as
           vibrations may cause significant error
 Vibrational temperatures:      9.84    14.84    22.63    25.03    35.94
          (Kelvin)             44.85    55.13    75.98    81.37    84.54
                               91.93   101.78   114.59   148.23   162.35
                              201.30   205.62   220.54   263.34   269.50
                              285.65   293.41   305.22   370.30   392.88
                              439.60   479.08   493.98   547.86   553.97
                              575.64   576.73   624.78   629.62   641.66
                              645.55   710.18   718.15   726.66   741.90
                              804.47   808.94   811.21   815.59   817.97
                              826.21   889.30   944.27   944.88   969.47
                              971.60  1061.01  1061.81  1090.41  1148.60
                             1149.58  1204.41  1208.80  1309.17  1310.11
                             1344.22  1344.36  1424.06  1433.77  1443.45
                             1454.22  1457.88  1484.88  1491.61  1571.57
                             1572.41  1605.42  1613.46  1667.37  1675.62
                             1698.19  1723.93  1725.58  1741.07  1762.40
                             1806.31  1815.85  1880.27  1885.57  1987.78
                             1989.42  2004.34  2005.39  2113.35  2122.77
                             2151.52  2151.75  2319.42  2320.31  2339.53
                             2339.88  2427.16  2428.06  3366.71  3435.38
                             4535.36  4636.38  4647.06  4649.04  4665.20
                             4666.35  4669.62  4670.97

 Zero-point correction=                           0.231805 (Hartree/Particle)
 Thermal correction to Energy=                    0.260423
 Thermal correction to Enthalpy=                  0.261367
 Thermal correction to Gibbs Free Energy=         0.163085
 Sum of electronic and zero-point Energies=          -2052.130720
 Sum of electronic and thermal Energies=             -2052.102102
 Sum of electronic and thermal Enthalpies=           -2052.101158
 Sum of electronic and thermal Free Energies=        -2052.199440

                     E (Thermal)             CV                S
                      KCal/Mol        Cal/Mol-Kelvin    Cal/Mol-Kelvin
 Total                  163.418             99.905            206.852
 Electronic               0.000              0.000              0.000
 Translational            0.889              2.981             44.195
 Rotational               0.889              2.981             37.489
 Vibrational            161.641             93.943            125.168
 Vibration     1          0.593              1.987              8.766
 Vibration     2          0.593              1.987              7.949
 Vibration     3          0.593              1.986              7.112
 Vibration     4          0.593              1.986              6.911
 Vibration     5          0.593              1.985              6.193
 Vibration     6          0.594              1.983              5.753
 Vibration     7          0.594              1.982              5.344
 Vibration     8          0.596              1.976              4.709
 Vibration     9          0.596              1.975              4.574
 Vibration    10          0.596              1.974              4.498
 Vibration    11          0.597              1.972              4.333
 Vibration    12          0.598              1.968              4.133
 Vibration    13          0.600              1.963              3.900
 Vibration    14          0.605              1.947              3.396
 Vibration    15          0.607              1.939              3.220
 Vibration    16          0.615              1.913              2.805
 Vibration    17          0.616              1.910              2.764
 Vibration    18          0.619              1.899              2.631
 Vibration    19          0.631              1.863              2.297
 Vibration    20          0.632              1.857              2.254
 Vibration    21          0.637              1.842              2.147
 Vibration    22          0.640              1.834              2.097
 Vibration    23          0.643              1.822              2.025
 Vibration    24          0.667              1.750              1.680
 Vibration    25          0.676              1.723              1.577
 Vibration    26          0.696              1.663              1.386
 Vibration    27          0.715              1.610              1.246
 Vibration    28          0.722              1.589              1.197
 Vibration    29          0.751              1.511              1.036
 Vibration    30          0.754              1.502              1.019
 Vibration    31          0.766              1.470              0.962
 Vibration    32          0.767              1.468              0.960
 Vibration    33          0.795              1.396              0.845
 Vibration    34          0.798              1.388              0.834
 Vibration    35          0.805              1.370              0.808
 Vibration    36          0.808              1.364              0.800
 Vibration    37          0.849              1.264              0.674
 Vibration    38          0.855              1.252              0.660
 Vibration    39          0.860              1.239              0.646
 Vibration    40          0.871              1.215              0.620
 Vibration    41          0.915              1.120              0.526
 Vibration    42          0.918              1.113              0.519
 Vibration    43          0.920              1.110              0.516
 Vibration    44          0.923              1.103              0.510
 Vibration    45          0.925              1.099              0.507
 Vibration    46          0.931              1.087              0.496
 Vibration    47          0.978              0.994              0.420

 Normal termination of Gaussian 09 at Thu Feb 24 04:10:24 2005.
