 Gaussian 09, Revision B.01,
 Gaussian 09:  EM64L-G09RevB.01 12-Aug-2010

 ----------------------------
 # opt freq rb3lyp/6-31G(d,p)
 ----------------------------

 ----------------------------------------
 x2-3-NO2-Ph-N2-OTf-v1-RB3LYP-6-311++G_dp
 ----------------------------------------
 Symbolic Z-matrix:
 Charge =  1 Multiplicity = 1

 SCF Done:  E(RB3LYP) =  -2052.30275307     A.U. after   19 cycles
 SCF Done:  E(RB3LYP) =  -2052.34502163     A.U. after   15 cycles
 SCF Done:  E(RB3LYP) =  -2052.35663128     A.U. after   15 cycles
 SCF Done:  E(RB3LYP) =  -2052.35945687     A.U. after   15 cycles
 SCF Done:  E(RB3LYP) =  -2052.35381151     A.U. after   15 cycles
 SCF Done:  E(RB3LYP) =  -2052.35977166     A.U. after   15 cycles
 SCF Done:  E(RB3LYP) =  -2052.36080981     A.U. after   14 cycles
 SCF Done:  E(RB3LYP) =  -2052.36093059     A.U. after   13 cycles
 SCF Done:  E(RB3LYP) =  -2052.35647241     A.U. after   17 cycles
 SCF Done:  E(RB3LYP) =  -2052.36118057     A.U. after   15 cycles
 SCF Done:  E(RB3LYP) =  -2052.36355433     A.U. after   11 cycles
 SCF Done:  E(RB3LYP) =  -2052.36355335     A.U. after   12 cycles
 SCF Done:  E(RB3LYP) =  -2052.36354704     A.U. after   13 cycles
 SCF Done:  E(RB3LYP) =  -2052.36355071     A.U. after   11 cycles
 SCF Done:  E(RB3LYP) =  -2052.36354998     A.U. after    9 cycles
 SCF Done:  E(RB3LYP) =  -2052.36355012     A.U. after    8 cycles
 SCF Done:  E(RB3LYP) =  -2052.36354951     A.U. after    9 cycles
 SCF Done:  E(RB3LYP) =  -2052.36354883     A.U. after    9 cycles
 SCF Done:  E(RB3LYP) =  -2052.36354902     A.U. after    8 cycles
 Optimization completed.
    -- Stationary point found.
 Normal termination of Gaussian 09 at Mon Jan 10 03:44:18 2005.

 ----------------------------------------------------------------------
 #N Geom=AllCheck Guess=TCheck SCRF=Check GenChk RB3LYP/6-31G(d,p) Freq
 ----------------------------------------------------------------------

 x2-3-NO2-Ph-N2-OTf-v1-RB3LYP-6-311++G_dp
 ----------------------------------------
 Redundant internal coordinates taken from checkpoint file:
 Ph-N2-OTf-N2-Ph.chk
 Charge =  1 Multiplicity = 1

                         Standard orientation:
 ---------------------------------------------------------------------
 Center     Atomic      Atomic             Coordinates (Angstroms)
 Number     Number       Type             X           Y           Z
 ---------------------------------------------------------------------
      1          6           0       -4.103813    0.403996   -1.131336
      2          6           0       -4.324825   -0.159962    0.138038
      3          6           0       -5.564882   -0.649033    0.579628
      4          6           0       -6.606676   -0.556267   -0.324718
      5          6           0       -6.447255   -0.006852   -1.598597
      6          6           0       -5.194566    0.471139   -1.992497
      7          1           0       -3.114024    0.773336   -1.384994
      8          1           0       -5.720192   -1.079289    1.561686
      9          1           0       -7.306389    0.038205   -2.258102
     10          1           0       -5.066643    0.902001   -2.979009
     11          7           0       -3.267536   -0.254523    1.032020
     12          7           0       -2.449939   -0.369090    1.780266
     13         16           0       -0.059171    0.694810   -0.209600
     14          8           0       -0.224374   -0.594306    0.529768
     15          8           0        0.969944    0.631981   -1.272069
     16          8           0       -1.342900    1.338748   -0.564273
     17          6           0        0.689378    1.824767    1.061664
     18          9           0        1.892557    1.326396    1.427087
     19          9           0       -0.088752    1.895778    2.144796
     20          9           0        0.874254    3.047728    0.568012
     21          1           0        2.967981    1.026777   -1.250381
     22          6           0        3.932850    0.598642   -0.996757
     23          6           0        3.987767   -0.669751   -0.392707
     24          6           0        5.144719    1.235892   -1.242910
     25          6           0        5.179111   -1.319415   -0.030543
     26          6           0        6.355346    0.630433   -0.895852
     27          1           0        5.144931    2.214640   -1.708992
     28          6           0        6.348224   -0.631385   -0.297897
     29          1           0        5.206495   -2.298197    0.433032
     30          1           0        7.307308    1.115253   -1.079601
     31          7           0        2.810112   -1.356290   -0.128142
     32          7           0        1.918709   -1.976718    0.122154
     33          7           0       -7.938745   -1.063277    0.090199
     34          8           0       -8.842962   -0.967482   -0.728279
     35          8           0       -8.020106   -1.535996    1.218265
     36          7           0        7.635268   -1.273502    0.068861
     37          8           0        8.654561   -0.644940   -0.181248
     38          8           0        7.568010   -2.380283    0.591624
 ---------------------------------------------------------------------

 SCF Done:  E(RB3LYP) =  -2052.36354902     A.U. after    1 cycles

 The electronic state is 1-A.
 Alpha  occ. eigenvalues --  -89.21213 -24.83892 -24.83602 -24.83399 -19.30430
 Alpha  occ. eigenvalues --  -19.30397 -19.30331 -19.30294 -19.24221 -19.23999
 Alpha  occ. eigenvalues --  -19.23924 -14.69621 -14.69585 -14.68423 -14.68384
 Alpha  occ. eigenvalues --  -14.65560 -14.65510 -10.54028 -10.44606 -10.44557
 Alpha  occ. eigenvalues --  -10.40209 -10.40156 -10.39158 -10.39118 -10.37775
 Alpha  occ. eigenvalues --  -10.37718 -10.37357 -10.37306 -10.36271 -10.36204
 Alpha  occ. eigenvalues --   -8.23510  -6.19959  -6.19955  -6.19907  -1.41472
 Alpha  occ. eigenvalues --   -1.34910  -1.34874  -1.33408  -1.33400  -1.32835
 Alpha  occ. eigenvalues --   -1.32719  -1.22164  -1.17888  -1.17852  -1.09180
 Alpha  occ. eigenvalues --   -1.08537  -1.07670  -1.07602  -1.00530  -1.00476
 Alpha  occ. eigenvalues --   -0.94652  -0.94610  -0.87743  -0.87696  -0.84783
 Alpha  occ. eigenvalues --   -0.84736  -0.82951  -0.77250  -0.77201  -0.73894
 Alpha  occ. eigenvalues --   -0.71824  -0.71786  -0.69283  -0.69026  -0.68701
 Alpha  occ. eigenvalues --   -0.68669  -0.68606  -0.68583  -0.67918  -0.67787
 Alpha  occ. eigenvalues --   -0.65705  -0.65514  -0.65477  -0.65147  -0.64982
 Alpha  occ. eigenvalues --   -0.64738  -0.63659  -0.63326  -0.63104  -0.61257
 Alpha  occ. eigenvalues --   -0.61154  -0.60348  -0.60238  -0.57312  -0.57225
 Alpha  occ. eigenvalues --   -0.56094  -0.56003  -0.54824  -0.54434  -0.54397
 Alpha  occ. eigenvalues --   -0.54129  -0.53996  -0.53298  -0.53194  -0.52856
 Alpha  occ. eigenvalues --   -0.52646  -0.50754  -0.44767  -0.44356  -0.44140
 Alpha  occ. eigenvalues --   -0.44057  -0.43318  -0.43247  -0.42691  -0.42656
 Alpha  occ. eigenvalues --   -0.42589  -0.42549  -0.41381  -0.41348  -0.41148
 Alpha  occ. eigenvalues --   -0.40815  -0.39882  -0.37250
 Alpha virt. eigenvalues --   -0.25577  -0.25540  -0.23419  -0.22746  -0.21598
 Alpha virt. eigenvalues --   -0.21550  -0.15460  -0.15415  -0.12518  -0.12476
 Alpha virt. eigenvalues --   -0.06552  -0.06397  -0.01204  -0.00592  -0.00331

 Mulliken atomic charges:
              1
     1  C   -0.001030
     2  C    0.218336
     3  C   -0.037900
     4  C    0.239942
     5  C   -0.042561
     6  C   -0.104205
     7  H    0.221169
     8  H    0.200612
     9  H    0.192783
    10  H    0.170159
    11  N    0.145097
    12  N   -0.016997
    13  S    1.170196
    14  O   -0.601444
    15  O   -0.588627
    16  O   -0.585597
    17  C    0.574758
    18  F   -0.266424
    19  F   -0.234882
    20  F   -0.224030
    21  H    0.216562
    22  C   -0.001818
    23  C    0.217968
    24  C   -0.104809
    25  C   -0.035011
    26  C   -0.042175
    27  H    0.169998
    28  C    0.238889
    29  H    0.200051
    30  H    0.192759
    31  N    0.136923
    32  N   -0.009312
    33  N    0.410292
    34  O   -0.352007
    35  O   -0.362812
    36  N    0.410371
    37  O   -0.351922
    38  O   -0.363300
 Sum of Mulliken atomic charges =   1.00000

 Dipole moment (field-independent basis, Debye):
    X=             -0.6720    Y=             -0.9692    Z=             -2.4570  Tot=              2.7254
 Quadrupole moment (field-independent basis, Debye-Ang):
   XX=            -74.5711   YY=           -161.8549   ZZ=           -155.7036
   XY=              2.0888   XZ=             -1.1659   YZ=             -2.8860

  Exact polarizability: 405.609  19.642 163.504  13.618 -41.126 166.937
 Approx polarizability: 554.523  53.270 307.076  34.552-105.291 331.779

                     1                      2                      3
                     A                      A                      A
 Frequencies --     6.1821                 9.5331                10.9238
 Red. masses --    13.4276                11.7196                 9.8474
 Frc consts  --     0.0003                 0.0006                 0.0007
 IR Inten    --     0.1819                 0.4759                 0.2805

                     4                      5                      6
                     A                      A                      A
 Frequencies --    18.2693                22.0877                28.6205
 Red. masses --    12.0385                 7.7728                10.5383
 Frc consts  --     0.0024                 0.0022                 0.0051
 IR Inten    --     0.7778                 2.8899                 4.6525

                     7                      8                      9
                     A                      A                      A
 Frequencies --    38.8055                47.5501                58.6264
 Red. masses --    13.7480                13.0015                12.7344
 Frc consts  --     0.0122                 0.0173                 0.0258
 IR Inten    --     1.8255                 2.9706                 1.0094

                    10                     11                     12
                     A                      A                      A
 Frequencies --    59.5450                60.7672                68.9607
 Red. masses --    12.3639                10.4621                11.3398
 Frc consts  --     0.0258                 0.0228                 0.0318
 IR Inten    --     0.6721                 3.0804                12.4873

                    13                     14                     15
                     A                      A                      A
 Frequencies --    71.8809               105.1035               112.9468
 Red. masses --     9.1822                14.8274                14.4953
 Frc consts  --     0.0280                 0.0965                 0.1089
 IR Inten    --     9.0157                 5.4788                59.1842

                    16                     17                     18
                     A                      A                      A
 Frequencies --   141.0724               141.6660               179.2441
 Red. masses --     6.4991                 6.5472                 7.2212
 Frc consts  --     0.0762                 0.0774                 0.1367
 IR Inten    --     0.4081                 2.4463                18.4588

                    19                     20                     21
                     A                      A                      A
 Frequencies --   180.6888               187.9228               195.0164
 Red. masses --     6.5525                 7.9393                 9.4070
 Frc consts  --     0.1260                 0.1652                 0.2108
 IR Inten    --    11.0680                22.6630                 3.0204

                    22                     23                     24
                     A                      A                      A
 Frequencies --   202.9073               216.4060               266.0890
 Red. masses --    13.9832                16.1945                 7.7634
 Frc consts  --     0.3392                 0.4468                 0.3239
 IR Inten    --    24.7744                 3.0064                 3.3699

                    25                     26                     27
                     A                      A                      A
 Frequencies --   267.4018               307.5209               333.2310
 Red. masses --     7.8174                17.7599                17.3674
 Frc consts  --     0.3293                 0.9896                 1.1363
 IR Inten    --     1.8383                 2.9570                 3.0213

                    28                     29                     30
                     A                      A                      A
 Frequencies --   344.0807               383.7897               384.3575
 Red. masses --    17.4264                10.6681                10.5928
 Frc consts  --     1.2156                 0.9258                 0.9220
 IR Inten    --    18.8585                30.1880                 2.8288

                    31                     32                     33
                     A                      A                      A
 Frequencies --   402.0513               402.8734               436.5640
 Red. masses --     4.1882                 4.2624                 4.2220
 Frc consts  --     0.3989                 0.4076                 0.4741
 IR Inten    --     0.0086                 0.5477                 0.3295

                    34                     35                     36
                     A                      A                      A
 Frequencies --   436.9699               446.9991               448.0714
 Red. masses --     4.2889                 9.1654                 9.0595
 Frc consts  --     0.4825                 1.0790                 1.0716
 IR Inten    --     0.5648                 0.5392                 8.3120

                    37                     38                     39
                     A                      A                      A
 Frequencies --   492.0308               502.6057               505.6679
 Red. masses --    17.0070                15.0017                11.4842
 Frc consts  --     2.4258                 2.2328                 1.7301
 IR Inten    --    16.9654                43.2241                15.1738

                    40                     41                     42
                     A                      A                      A
 Frequencies --   506.6473               558.6002               563.4032
 Red. masses --    10.5333                17.0288                11.2372
 Frc consts  --     1.5930                 3.1307                 2.1016
 IR Inten    --     0.0925                 3.0425                22.3061

                    43                     44                     45
                     A                      A                      A
 Frequencies --   564.7273               565.1795               568.5763
 Red. masses --     7.3356                 7.9809                 7.3352
 Frc consts  --     1.3784                 1.5020                 1.3971
 IR Inten    --     3.6204                 4.7671                 3.5772

                    46                     47                     48
                     A                      A                      A
 Frequencies --   569.3511               618.6356               656.3320
 Red. masses --     7.4145                19.3167                 2.9718
 Frc consts  --     1.4161                 4.3556                 0.7542
 IR Inten    --     5.9166               136.5301                14.5301

                    49                     50                     51
                     A                      A                      A
 Frequencies --   658.3342               674.2018               674.9690
 Red. masses --     2.9616                 7.4044                 7.3975
 Frc consts  --     0.7563                 1.9830                 1.9856
 IR Inten    --    14.5733                 2.5867                 3.4432

                    52                     53                     54
                     A                      A                      A
 Frequencies --   737.5534               738.0426               757.6438
 Red. masses --     5.0633                 5.1226                18.3005
 Frc consts  --     1.6228                 1.6440                 6.1893
 IR Inten    --    24.3262                26.7369                 2.0066

                    55                     56                     57
                     A                      A                      A
 Frequencies --   798.1422               798.4469               839.6275
 Red. masses --    10.7825                10.7605                 1.3572
 Frc consts  --     4.0470                 4.0418                 0.5637
 IR Inten    --    29.6451                23.5062                20.9908

                    58                     59                     60
                     A                      A                      A
 Frequencies --   843.1926               909.7471               910.3589
 Red. masses --     1.3532                 6.8992                 6.8524
 Frc consts  --     0.5669                 3.3643                 3.3459
 IR Inten    --    19.3501                92.0154                11.6161

                    61                     62                     63
                     A                      A                      A
 Frequencies --   932.9867               934.5269               988.2813
 Red. masses --     1.4780                 1.4747                12.7061
 Frc consts  --     0.7580                 0.7588                 7.3118
 IR Inten    --    12.3156                12.4646               174.2879

                    64                     65                     66
                     A                      A                      A
 Frequencies --  1001.5575              1007.3865              1012.5670
 Red. masses --     1.3476                 1.3854                 5.9206
 Frc consts  --     0.7965                 0.8283                 3.5765
 IR Inten    --     1.8580                 6.6008                 0.1648

                    67                     68                     69
                     A                      A                      A
 Frequencies --  1012.6565              1034.6359              1040.5135
 Red. masses --     6.1320                 1.3341                 1.3275
 Frc consts  --     3.7049                 0.8414                 0.8468
 IR Inten    --     2.4678                 1.3009                 2.3878

                    70                     71                     72
                     A                      A                      A
 Frequencies --  1091.8005              1092.5743              1114.6759
 Red. masses --     1.6562                 1.6582                 1.5559
 Frc consts  --     1.1632                 1.1662                 1.1390
 IR Inten    --   227.5520                 2.0665                23.5288

                    73                     74                     75
                     A                      A                      A
 Frequencies --  1116.3380              1159.2116              1161.1482
 Red. masses --     1.5780                 7.1213                 6.8922
 Frc consts  --     1.1587                 5.6381                 5.4750
 IR Inten    --    24.3878                66.3428                55.4996

                    76                     77                     78
                     A                      A                      A
 Frequencies --  1173.1605              1188.9606              1198.0248
 Red. masses --    10.5054                10.3845                 1.2176
 Frc consts  --     8.5188                 8.6491                 1.0297
 IR Inten    --    98.7989                93.4124               174.8357

                    79                     80                     81
                     A                      A                      A
 Frequencies --  1201.8137              1232.2318              1254.3368
 Red. masses --     1.2170                10.6095                11.7696
 Frc consts  --     1.0356                 9.4914                10.9104
 IR Inten    --    25.5603                69.4848               503.6606

                    82                     83                     84
                     A                      A                      A
 Frequencies --  1263.2816              1307.2567              1307.8584
 Red. masses --    13.1549                 1.3871                 1.3953
 Frc consts  --    12.3691                 1.3966                 1.4062
 IR Inten    --   323.2148                 0.4299                 0.6233

                    85                     86                     87
                     A                      A                      A
 Frequencies --  1381.7372              1381.8858              1393.1446
 Red. masses --     8.6689                 8.7692                14.0919
 Frc consts  --     9.7514                 9.8663                16.1143
 IR Inten    --     0.0462                 0.2764               417.4884

                    88                     89                     90
                     A                      A                      A
 Frequencies --  1393.8302              1470.7321              1472.6530
 Red. masses --    14.1317                 2.6064                 2.5700
 Frc consts  --    16.1758                 3.3216                 3.2838
 IR Inten    --    74.7964                 1.4831                 2.0610

                    91                     92                     93
                     A                      A                      A
 Frequencies --  1493.9960              1494.7718              1612.1516
 Red. masses --     2.3335                 2.3362                 6.5206
 Frc consts  --     3.0688                 3.0754                 9.9850
 IR Inten    --    23.1557                19.0076                 7.3708

                    94                     95                     96
                     A                      A                      A
 Frequencies --  1612.3573              1626.3878              1626.6460
 Red. masses --     6.5437                 6.4159                 6.3992
 Frc consts  --    10.0229                 9.9990                 9.9761
 IR Inten    --    17.5508                34.3733                11.1651

                    97                     98                     99
                     A                      A                      A
 Frequencies --  1687.0926              1687.3906              2350.5012
 Red. masses --    12.3732                12.3742                13.9469
 Frc consts  --    20.7495                20.7587                45.3991
 IR Inten    --   191.2526               215.1571                49.7675

                   100                    101                    102
                     A                      A                      A
 Frequencies --  2354.6917              3198.9981              3206.2993
 Red. masses --    13.9498                 1.0965                 1.0962
 Frc consts  --    45.5707                 6.6114                 6.6399
 IR Inten    --    66.8965               254.8077               142.9240

                   103                    104                    105
                     A                      A                      A
 Frequencies --  3229.4666              3230.1959              3242.8266
 Red. masses --     1.0922                 1.0922                 1.0947
 Frc consts  --     6.7113                 6.7146                 6.7826
 IR Inten    --     9.7350                10.7608                14.3509

                   106                    107                    108
                     A                      A                      A
 Frequencies --  3243.0376              3246.4780              3246.5806
 Red. masses --     1.0948                 1.0942                 1.0941
 Frc consts  --     6.7841                 6.7945                 6.7946
 IR Inten    --    13.4730                20.2593                25.0900

 - Thermochemistry -
 -------------------
 Temperature   298.150 Kelvin.  Pressure   1.00000 Atm.
 Atom     1 has atomic number  6 and mass  12.00000

 Molecular mass:   449.01273 amu.
 Principal axes and moments of inertia in atomic units:
                           1         2         3
     Eigenvalues --  4215.50558********************
           X            1.00000   0.00048   0.00053
           Y           -0.00044   0.99752  -0.07035
           Z           -0.00056   0.07035   0.99752
 This molecule is an asymmetric top.
 Rotational symmetry number  1.
 Warning -- assumption of classical behavior for rotation
           may cause significant error
 Rotational temperatures (Kelvin)      0.02055     0.00212     0.00207
 Rotational constants (GHZ):           0.42812     0.04420     0.04311
 Zero-point vibrational energy     608590.5 (Joules/Mol)
                                  145.45661 (Kcal/Mol)
 Warning -- explicit consideration of  47 degrees of freedom as
           vibrations may cause significant error
 Vibrational temperatures:      8.89    13.72    15.72    26.29    31.78
          (Kelvin)             41.18    55.83    68.41    84.35    85.67
                               87.43    99.22   103.42   151.22   162.51
                              202.97   203.83   257.89   259.97   270.38
                              280.58   291.94   311.36   382.84   384.73
                              442.45   479.44   495.05   552.19   553.00
                              578.46   579.64   628.12   628.70   643.13
                              644.67   707.92   723.14   727.54   728.95
                              803.70   810.61   812.52   813.17   818.05
                              819.17   890.08   944.31   947.19   970.02
                              971.13  1061.17  1061.88  1090.08  1148.35
                             1148.79  1208.04  1213.16  1308.92  1309.80
                             1342.36  1344.57  1421.91  1441.02  1449.40
                             1456.86  1456.98  1488.61  1497.06  1570.86
                             1571.97  1603.77  1606.16  1667.84  1670.63
                             1687.91  1710.65  1723.69  1729.14  1772.90
                             1804.71  1817.58  1880.85  1881.71  1988.01
                             1988.22  2004.42  2005.41  2116.05  2118.82
                             2149.52  2150.64  2319.52  2319.82  2340.01
                             2340.38  2427.35  2427.78  3381.84  3387.87
                             4602.64  4613.14  4646.48  4647.53  4665.70
                             4666.00  4670.95  4671.10

 Zero-point correction=                           0.231800 (Hartree/Particle)
 Thermal correction to Energy=                    0.260418
 Thermal correction to Enthalpy=                  0.261362
 Thermal correction to Gibbs Free Energy=         0.162507
 Sum of electronic and zero-point Energies=          -2052.131749
 Sum of electronic and thermal Energies=             -2052.103131
 Sum of electronic and thermal Enthalpies=           -2052.102187
 Sum of electronic and thermal Free Energies=        -2052.201042

                     E (Thermal)             CV                S
                      KCal/Mol        Cal/Mol-Kelvin    Cal/Mol-Kelvin
 Total                  163.415             99.877            208.058
 Electronic               0.000              0.000              0.000
 Translational            0.889              2.981             44.195
 Rotational               0.889              2.981             37.220
 Vibrational            161.637             93.915            126.644
 Vibration     1          0.593              1.987              8.967
 Vibration     2          0.593              1.987              8.106
 Vibration     3          0.593              1.987              7.836
 Vibration     4          0.593              1.986              6.814
 Vibration     5          0.593              1.985              6.437
 Vibration     6          0.593              1.984              5.923
 Vibration     7          0.594              1.981              5.319
 Vibration     8          0.595              1.979              4.917
 Vibration     9          0.596              1.974              4.503
 Vibration    10          0.597              1.974              4.472
 Vibration    11          0.597              1.973              4.432
 Vibration    12          0.598              1.969              4.183
 Vibration    13          0.598              1.967              4.101
 Vibration    14          0.605              1.945              3.357
 Vibration    15          0.607              1.939              3.218
 Vibration    16          0.615              1.912              2.789
 Vibration    17          0.615              1.912              2.781
 Vibration    18          0.629              1.868              2.336
 Vibration    19          0.630              1.866              2.321
 Vibration    20          0.633              1.856              2.248
 Vibration    21          0.636              1.847              2.180
 Vibration    22          0.639              1.836              2.107
 Vibration    23          0.645              1.816              1.989
 Vibration    24          0.672              1.735              1.621
 Vibration    25          0.673              1.733              1.613
 Vibration    26          0.697              1.659              1.376
 Vibration    27          0.715              1.609              1.244
 Vibration    28          0.723              1.587              1.193
 Vibration    29          0.753              1.505              1.024
 Vibration    30          0.753              1.504              1.022
 Vibration    31          0.768              1.466              0.955
 Vibration    32          0.768              1.464              0.952
 Vibration    33          0.797              1.391              0.837
 Vibration    34          0.797              1.390              0.836
 Vibration    35          0.806              1.368              0.805
 Vibration    36          0.807              1.365              0.802
 Vibration    37          0.848              1.268              0.678
 Vibration    38          0.858              1.244              0.652
 Vibration    39          0.861              1.237              0.644
 Vibration    40          0.862              1.235              0.642
 Vibration    41          0.914              1.121              0.527
 Vibration    42          0.919              1.110              0.517
 Vibration    43          0.921              1.108              0.514
 Vibration    44          0.921              1.107              0.514
 Vibration    45          0.925              1.099              0.507
 Vibration    46          0.925              1.098              0.505
 Vibration    47          0.979              0.993              0.419

 Normal termination of Gaussian 09 at Mon Jan 10 04:17:07 2005.
