 Gaussian 09, Revision B.01,
 Gaussian 09:  EM64L-G09RevB.01 12-Aug-2010

 ----------------------------
 # opt freq rb3lyp/6-31G(d,p)
 ----------------------------

 -----------------------------------------
 x2-4-CH3O-Ph-N2-OTf-v1-RB3LYP-6-311++G_dp
 -----------------------------------------
 Symbolic Z-matrix:
 Charge =  1 Multiplicity = 1

 SCF Done:  E(RB3LYP) =  -1872.42557270     A.U. after   18 cycles
 SCF Done:  E(RB3LYP) =  -1872.45870312     A.U. after   14 cycles
 SCF Done:  E(RB3LYP) =  -1872.46659347     A.U. after   14 cycles
 SCF Done:  E(RB3LYP) =  -1872.46979255     A.U. after   13 cycles
 SCF Done:  E(RB3LYP) =  -1872.47085983     A.U. after   12 cycles
 SCF Done:  E(RB3LYP) =  -1872.47124926     A.U. after   12 cycles
 SCF Done:  E(RB3LYP) =  -1872.47137994     A.U. after   12 cycles
 SCF Done:  E(RB3LYP) =  -1872.47152359     A.U. after   13 cycles
 SCF Done:  E(RB3LYP) =  -1872.47166219     A.U. after   13 cycles
 SCF Done:  E(RB3LYP) =  -1872.47179722     A.U. after   13 cycles
 SCF Done:  E(RB3LYP) =  -1872.47323607     A.U. after    9 cycles
 SCF Done:  E(RB3LYP) =  -1872.47323594     A.U. after    8 cycles
 SCF Done:  E(RB3LYP) =  -1872.47323572     A.U. after    9 cycles
 SCF Done:  E(RB3LYP) =  -1872.47323562     A.U. after    8 cycles
 SCF Done:  E(RB3LYP) =  -1872.47323579     A.U. after    8 cycles
 SCF Done:  E(RB3LYP) =  -1872.47323584     A.U. after    7 cycles
 SCF Done:  E(RB3LYP) =  -1872.47323578     A.U. after    7 cycles
 SCF Done:  E(RB3LYP) =  -1872.47323558     A.U. after    8 cycles
 SCF Done:  E(RB3LYP) =  -1872.47323531     A.U. after    8 cycles
 Optimization completed.
    -- Stationary point found.
 Normal termination of Gaussian 09 at Mon Jan 10 08:54:54 2005.

 ----------------------------------------------------------------------
 #N Geom=AllCheck Guess=TCheck SCRF=Check GenChk RB3LYP/6-31G(d,p) Freq
 ----------------------------------------------------------------------

 x2-4-CH3O-Ph-N2-OTf-v1-RB3LYP-6-311++G_dp
 -----------------------------------------
 Redundant internal coordinates taken from checkpoint file:
 Ph-N2-OTf-N2-Ph.chk
 Charge =  1 Multiplicity = 1

                         Standard orientation:
 ---------------------------------------------------------------------
 Center     Atomic      Atomic             Coordinates (Angstroms)
 Number     Number       Type             X           Y           Z
 ---------------------------------------------------------------------
      1          6           0       -4.183334    0.536211   -0.045275
      2          6           0       -4.374328   -0.859335   -0.101000
      3          6           0       -5.649693   -1.451871   -0.277796
      4          6           0       -6.736258   -0.623331   -0.405555
      5          6           0       -6.573507    0.785552   -0.355391
      6          6           0       -5.291896    1.351073   -0.173402
      7          1           0       -3.181672    0.926109    0.115927
      8          1           0       -5.756534   -2.530197   -0.313424
      9          1           0       -7.734100   -1.022434   -0.544866
     10          1           0       -5.160314    2.424276   -0.127415
     11          7           0       -3.295936   -1.689596    0.019059
     12          7           0       -2.434668   -2.398894    0.098617
     13         16           0       -0.091319   -0.001975    0.254256
     14          8           0       -0.328350   -1.081024   -0.746451
     15          8           0        0.914270    0.998964   -0.171397
     16          8           0       -1.328174    0.529684    0.869629
     17          6           0        0.753641   -0.894677    1.648719
     18          9           0        1.916201   -1.421936    1.199478
     19          9           0       -0.009708   -1.892310    2.108906
     20          9           0        1.037219   -0.063782    2.654524
     21          1           0        2.932397    1.033551    0.095506
     22          6           0        3.892060    0.696680   -0.284776
     23          6           0        3.922548   -0.272483   -1.307359
     24          6           0        5.095062    1.187708    0.184746
     25          6           0        5.132426   -0.755056   -1.867539
     26          6           0        6.314212    0.719166   -0.353291
     27          1           0        5.085572    1.934017    0.968487
     28          6           0        6.315777   -0.256184   -1.383898
     29          1           0        5.116038   -1.500598   -2.654543
     30          1           0        7.268998   -0.592438   -1.774645
     31          7           0        2.753886   -0.782188   -1.800462
     32          7           0        1.844712   -1.251514   -2.253875
     33          8           0        7.518048    1.129021    0.035709
     34          8           0       -7.696002    1.486282   -0.488276
     35          6           0        7.645515    2.114926    1.075370
     36          1           0        8.716511    2.264121    1.198953
     37          1           0        7.172141    3.054886    0.776881
     38          1           0        7.211549    1.748973    2.010458
     39          6           0       -7.660759    2.923793   -0.451328
     40          1           0       -7.048403    3.316536   -1.268305
     41          1           0       -8.694474    3.239007   -0.580426
     42          1           0       -7.283122    3.276953    0.512704
 ---------------------------------------------------------------------

 SCF Done:  E(RB3LYP) =  -1872.47323531     A.U. after    1 cycles

 The electronic state is 1-A.
 Alpha  occ. eigenvalues --  -89.18102 -24.81238 -24.81001 -24.80815 -19.31661
 Alpha  occ. eigenvalues --  -19.31633 -19.20825 -19.20769 -19.20716 -14.64268
 Alpha  occ. eigenvalues --  -14.64251 -14.60737 -14.60656 -10.51202 -10.40135
 Alpha  occ. eigenvalues --  -10.40101 -10.39859 -10.39822 -10.35194 -10.35171
 Alpha  occ. eigenvalues --  -10.35123 -10.35084 -10.34261 -10.34216 -10.32738
 Alpha  occ. eigenvalues --  -10.32703 -10.32651 -10.32605  -8.20371  -6.16815
 Alpha  occ. eigenvalues --   -6.16811  -6.16787  -1.38795  -1.30163  -1.30047
 Alpha  occ. eigenvalues --   -1.28946  -1.28902  -1.20440  -1.20411  -1.18952
 Alpha  occ. eigenvalues --   -1.05891  -1.05352  -1.03512  -1.03448  -0.95512
 Alpha  occ. eigenvalues --   -0.95469  -0.89865  -0.89836  -0.85856  -0.85817
 Alpha  occ. eigenvalues --   -0.80179  -0.79207  -0.79188  -0.76102  -0.76069
 Alpha  occ. eigenvalues --   -0.71042  -0.70392  -0.70373  -0.66596  -0.66394
 Alpha  occ. eigenvalues --   -0.65902  -0.65866  -0.65488  -0.65447  -0.64607
 Alpha  occ. eigenvalues --   -0.64571  -0.62238  -0.61365  -0.60885  -0.59738
 Alpha  occ. eigenvalues --   -0.59522  -0.58947  -0.58914  -0.58502  -0.58378
 Alpha  occ. eigenvalues --   -0.56930  -0.56481  -0.54803  -0.54788  -0.54045
 Alpha  occ. eigenvalues --   -0.54009  -0.53633  -0.53597  -0.52626  -0.52353
 Alpha  occ. eigenvalues --   -0.51807  -0.51283  -0.51249  -0.50469  -0.50144
 Alpha  occ. eigenvalues --   -0.49681  -0.49564  -0.48193  -0.46187  -0.46129
 Alpha  occ. eigenvalues --   -0.45426  -0.45342  -0.41197  -0.41022  -0.39782
 Alpha  occ. eigenvalues --   -0.39731  -0.37989  -0.37695  -0.36850  -0.36628
 Alpha  occ. eigenvalues --   -0.36594  -0.33890
 Alpha virt. eigenvalues --   -0.21140  -0.21124  -0.19504  -0.18994  -0.13957
 Alpha virt. eigenvalues --   -0.13908  -0.09643  -0.09623  -0.03040  -0.02918
 Alpha virt. eigenvalues --   -0.00017   0.00012   0.00870   0.00937   0.01875

 Mulliken atomic charges:
              1
     1  C   -0.023102
     2  C    0.215922
     3  C   -0.039108
     4  C   -0.115559
     5  C    0.400139
     6  C   -0.144337
     7  H    0.212671
     8  H    0.156687
     9  H    0.155005
    10  H    0.144065
    11  N    0.115711
    12  N   -0.051243
    13  S    1.166369
    14  O   -0.600525
    15  O   -0.589239
    16  O   -0.586700
    17  C    0.565802
    18  F   -0.268804
    19  F   -0.240839
    20  F   -0.233491
    21  H    0.207434
    22  C   -0.024961
    23  C    0.216327
    24  C   -0.144449
    25  C   -0.036670
    26  C    0.400333
    27  H    0.143822
    28  C   -0.116133
    29  H    0.156149
    30  H    0.154858
    31  N    0.108792
    32  N   -0.045566
    33  O   -0.478585
    34  O   -0.478621
    35  C   -0.111520
    36  H    0.167673
    37  H    0.146308
    38  H    0.146558
    39  C   -0.111414
    40  H    0.145615
    41  H    0.167703
    42  H    0.146921
 Sum of Mulliken atomic charges =   1.00000

 Dipole moment (field-independent basis, Debye):
    X=             -0.8372    Y=              1.3753    Z=             -3.2510  Tot=              3.6278
 Quadrupole moment (field-independent basis, Debye-Ang):
   XX=             54.3913   YY=           -131.8603   ZZ=           -151.6214
   XY=              1.7828   XZ=              0.7860   YZ=              7.5885

  Exact polarizability: 405.508  -8.645 214.193  28.015  27.996 146.573
 Approx polarizability: 604.272 -20.918 385.034  65.978  60.108 241.098

                     1                      2                      3
                     A                      A                      A
 Frequencies --     8.5742                 9.1340                16.8470
 Red. masses --     8.2963                 6.8843                 6.7423
 Frc consts  --     0.0004                 0.0003                 0.0011
 IR Inten    --     2.4075                 1.2425                 2.2058

                     4                      5                      6
                     A                      A                      A
 Frequencies --    20.2967                25.1717                34.1600
 Red. masses --     7.5469                 7.7815                 6.6519
 Frc consts  --     0.0018                 0.0029                 0.0046
 IR Inten    --     1.0350                 0.8676                 2.3703

                     7                      8                      9
                     A                      A                      A
 Frequencies --    39.5598                49.3326                54.8504
 Red. masses --     7.6628                 6.3698                 8.1960
 Frc consts  --     0.0071                 0.0091                 0.0145
 IR Inten    --     1.2101                 1.1265                 4.0456

                    10                     11                     12
                     A                      A                      A
 Frequencies --    60.0956                76.2406                83.3996
 Red. masses --     7.4848                 6.4522                 4.5821
 Frc consts  --     0.0159                 0.0221                 0.0188
 IR Inten    --     2.5241                 5.0697                 0.3755

                    13                     14                     15
                     A                      A                      A
 Frequencies --    86.9773                99.6538               116.5064
 Red. masses --     5.5247                12.3064                12.6987
 Frc consts  --     0.0246                 0.0720                 0.1016
 IR Inten    --     1.3504                 6.3125                82.2913

                    16                     17                     18
                     A                      A                      A
 Frequencies --   147.1988               148.0748               184.6852
 Red. masses --     4.3900                 4.4131                 8.0200
 Frc consts  --     0.0560                 0.0570                 0.1612
 IR Inten    --     5.0673                 5.0758                22.2764

                    19                     20                     21
                     A                      A                      A
 Frequencies --   193.1560               201.3607               206.5522
 Red. masses --     7.0938                 9.8034                 1.2303
 Frc consts  --     0.1559                 0.2342                 0.0309
 IR Inten    --     2.6838                11.9741                 2.5836

                    22                     23                     24
                     A                      A                      A
 Frequencies --   212.8162               214.8405               258.6299
 Red. masses --     1.4263                 4.7821                 3.6902
 Frc consts  --     0.0381                 0.1300                 0.1454
 IR Inten    --     0.0704                 4.8211                 0.3765

                    25                     26                     27
                     A                      A                      A
 Frequencies --   258.9184               276.2618               277.1284
 Red. masses --     3.7860                 4.3298                 4.1207
 Frc consts  --     0.1495                 0.1947                 0.1865
 IR Inten    --     0.4013                 2.2924                 1.3575

                    28                     29                     30
                     A                      A                      A
 Frequencies --   307.1203               333.2627               343.1572
 Red. masses --    17.6549                17.3584                17.2986
 Frc consts  --     0.9811                 1.1359                 1.2002
 IR Inten    --     2.2044                 3.0553                14.8023

                    31                     32                     33
                     A                      A                      A
 Frequencies --   385.7914               386.3041               416.4657
 Red. masses --     7.9003                 7.9221                 3.2477
 Frc consts  --     0.6928                 0.6965                 0.3319
 IR Inten    --     4.0772                 7.0481                 0.2214

                    34                     35                     36
                     A                      A                      A
 Frequencies --   416.5044               490.8213               493.9956
 Red. masses --     3.2395                 8.2268                 4.1229
 Frc consts  --     0.3311                 1.1677                 0.5928
 IR Inten    --     0.1759                 3.7879                 3.8352

                    37                     38                     39
                     A                      A                      A
 Frequencies --   495.3271               497.3615               498.6328
 Red. masses --     5.0096                 6.1242                 6.3894
 Frc consts  --     0.7242                 0.8926                 0.9360
 IR Inten    --     5.1234                27.1414                28.0521

                    40                     41                     42
                     A                      A                      A
 Frequencies --   502.5187               543.0756               543.6141
 Red. masses --    16.3037                 5.3299                 5.2973
 Frc consts  --     2.4257                 0.9262                 0.9223
 IR Inten    --    49.5095                 8.2299                 5.8841

                    43                     44                     45
                     A                      A                      A
 Frequencies --   544.8682               545.9916               558.3522
 Red. masses --     5.4975                 5.4618                17.6701
 Frc consts  --     0.9616                 0.9593                 3.2457
 IR Inten    --     8.2492                 6.8450                 4.4969

                    46                     47                     48
                     A                      A                      A
 Frequencies --   563.0338               619.7926               649.4565
 Red. masses --    17.9132                20.0563                 7.2085
 Frc consts  --     3.3457                 4.5394                 1.7914
 IR Inten    --    26.6423               140.7482                 7.6927

                    49                     50                     51
                     A                      A                      A
 Frequencies --   650.3419               704.8305               705.0996
 Red. masses --     7.2647                 4.0627                 4.8179
 Frc consts  --     1.8103                 1.1891                 1.4113
 IR Inten    --     6.2486                 4.1681                13.1991

                    52                     53                     54
                     A                      A                      A
 Frequencies --   705.2182               706.2802               755.1106
 Red. masses --     4.9890                 4.0225                18.3287
 Frc consts  --     1.4619                 1.1822                 6.1575
 IR Inten    --     1.0219                 2.6345                 2.2430

                    55                     56                     57
                     A                      A                      A
 Frequencies --   822.7093               824.9797               833.9958
 Red. masses --     1.2607                 1.2692                 6.1193
 Frc consts  --     0.5028                 0.5089                 2.5077
 IR Inten    --     2.9490                 5.1214                10.5615

                    58                     59                     60
                     A                      A                      A
 Frequencies --   834.2408               861.4912               863.7658
 Red. masses --     6.1330                 1.6841                 1.6536
 Frc consts  --     2.5148                 0.7364                 0.7269
 IR Inten    --     1.5278                56.5480                60.4646

                    61                     62                     63
                     A                      A                      A
 Frequencies --   976.9681               977.4433               990.9633
 Red. masses --     1.2745                 1.2750                14.1990
 Frc consts  --     0.7167                 0.7177                 8.2153
 IR Inten    --     0.0757                 0.1256               158.4253

                    64                     65                     66
                     A                      A                      A
 Frequencies --  1010.8106              1012.5202              1012.8356
 Red. masses --     1.3857                 2.7939                 2.3784
 Frc consts  --     0.8342                 1.6876                 1.4375
 IR Inten    --     3.4431                 7.1356                 5.2155

                    67                     68                     69
                     A                      A                      A
 Frequencies --  1023.3536              1034.9940              1035.3122
 Red. masses --     1.2849                 7.2655                 7.2352
 Frc consts  --     0.7928                 4.5855                 4.5692
 IR Inten    --    10.4612                59.4818               110.4172

                    70                     71                     72
                     A                      A                      A
 Frequencies --  1149.9136              1150.3444              1160.0804
 Red. masses --     1.2977                 1.2708                 2.2872
 Frc consts  --     1.0110                 0.9908                 1.8135
 IR Inten    --    13.2796                 5.5750               764.0728

                    73                     74                     75
                     A                      A                      A
 Frequencies --  1165.2336              1170.0690              1170.4768
 Red. masses --     2.3599                 1.2671                 1.2666
 Frc consts  --     1.8879                 1.0221                 1.0224
 IR Inten    --   178.5927                 0.7973                 0.9206

                    76                     77                     78
                     A                      A                      A
 Frequencies --  1184.1546              1193.1269              1208.2307
 Red. masses --    11.5731                12.8646                 1.3540
 Frc consts  --     9.5613                10.7899                 1.1646
 IR Inten    --    68.3261               146.6181                 0.5519

                    79                     80                     81
                     A                      A                      A
 Frequencies --  1208.4557              1222.8799              1225.3891
 Red. masses --     1.3491                 1.9997                 1.7615
 Frc consts  --     1.1608                 1.7619                 1.5584
 IR Inten    --     0.2751                79.9667                 9.9990

                    82                     83                     84
                     A                      A                      A
 Frequencies --  1232.0886              1249.2056              1253.9410
 Red. masses --     4.5192                 9.7761                11.5114
 Frc consts  --     4.0420                 8.9884                10.6643
 IR Inten    --    36.5819               256.8886               532.6061

                    85                     86                     87
                     A                      A                      A
 Frequencies --  1338.0522              1338.2409              1349.8665
 Red. masses --     1.4893                 1.4902                 2.7525
 Frc consts  --     1.5710                 1.5724                 2.9550
 IR Inten    --    48.8716                40.6751               272.7989

                    88                     89                     90
                     A                      A                      A
 Frequencies --  1350.9364              1380.8233              1381.7221
 Red. masses --     2.6950                 5.2921                 5.2198
 Frc consts  --     2.8978                 5.9450                 5.8714
 IR Inten    --   221.7445               163.0751                85.6837

                    91                     92                     93
                     A                      A                      A
 Frequencies --  1482.8812              1483.3188              1497.7601
 Red. masses --     1.2536                 1.2458                 2.3050
 Frc consts  --     1.6242                 1.6150                 3.0465
 IR Inten    --    45.2388                23.5131                61.5510

                    94                     95                     96
                     A                      A                      A
 Frequencies --  1497.8655              1508.6480              1509.0113
 Red. masses --     2.3120                 1.0556                 1.0455
 Frc consts  --     3.0563                 1.4155                 1.4027
 IR Inten    --     3.3373                12.7865                12.1235

                    97                     98                     99
                     A                      A                      A
 Frequencies --  1510.0862              1510.5480              1539.7058
 Red. masses --     1.2849                 1.2818                 2.5165
 Frc consts  --     1.7264                 1.7232                 3.5150
 IR Inten    --    18.3741                21.1343               104.6947

                   100                    101                    102
                     A                      A                      A
 Frequencies --  1540.1252              1583.6124              1584.0424
 Red. masses --     2.5172                 6.3528                 6.3077
 Frc consts  --     3.5178                 9.3867                 9.3252
 IR Inten    --    58.4365                66.5898                 1.0364

                   103                    104                    105
                     A                      A                      A
 Frequencies --  1646.5017              1647.9605              2316.3807
 Red. masses --     5.2808                 5.3282                13.9171
 Frc consts  --     8.4348                 8.5257                43.9965
 IR Inten    --   772.3743               313.6294               281.4648

                   106                    107                    108
                     A                      A                      A
 Frequencies --  2322.5852              3053.6205              3053.6569
 Red. masses --    13.9194                 1.0327                 1.0326
 Frc consts  --    44.2398                 5.6733                 5.6733
 IR Inten    --   286.2553                16.6329                33.9773

                   109                    110                    111
                     A                      A                      A
 Frequencies --  3134.5023              3134.8679              3189.5855
 Red. masses --     1.1086                 1.1086                 1.0970
 Frc consts  --     6.4174                 6.4190                 6.5754
 IR Inten    --    14.0169                14.0171               241.9462

                   112                    113                    114
                     A                      A                      A
 Frequencies --  3190.2468              3190.3085              3200.5619
 Red. masses --     1.1034                 1.1036                 1.0963
 Frc consts  --     6.6168                 6.6180                 6.6166
 IR Inten    --     1.0915                 1.8028               145.7504

                   115                    116                    117
                     A                      A                      A
 Frequencies --  3223.9622              3223.9974              3237.7706
 Red. masses --     1.0902                 1.0903                 1.0969
 Frc consts  --     6.6762                 6.6768                 6.7752
 IR Inten    --     0.3513                 0.4254                 1.9199

                   118                    119                    120
                     A                      A                      A
 Frequencies --  3237.8554              3243.6766              3245.3769
 Red. masses --     1.0969                 1.0922                 1.0919
 Frc consts  --     6.7755                 6.7704                 6.7756
 IR Inten    --     1.9943                 5.8182                 4.8443

 - Thermochemistry -
 -------------------
 Temperature   298.150 Kelvin.  Pressure   1.00000 Atm.
 Atom     1 has atomic number  6 and mass  12.00000

 Molecular mass:   419.06370 amu.
 Principal axes and moments of inertia in atomic units:
                           1         2         3
     Eigenvalues --  4463.38713********************
           X            1.00000  -0.00165   0.00241
           Y            0.00136   0.99298   0.11824
           Z           -0.00259  -0.11824   0.99298
 This molecule is an asymmetric top.
 Rotational symmetry number  1.
 Warning -- assumption of classical behavior for rotation
           may cause significant error
 Rotational temperatures (Kelvin)      0.01941     0.00266     0.00262
 Rotational constants (GHZ):           0.40434     0.05545     0.05454
 Zero-point vibrational energy     769578.0 (Joules/Mol)
                                  183.93355 (Kcal/Mol)
 Warning -- explicit consideration of  47 degrees of freedom as
           vibrations may cause significant error
 Vibrational temperatures:     12.34    13.14    24.24    29.20    36.22
          (Kelvin)             49.15    56.92    70.98    78.92    86.46
                              109.69   119.99   125.14   143.38   167.63
                              211.79   213.05   265.72   277.91   289.71
                              297.18   306.19   309.11   372.11   372.53
                              397.48   398.73   441.88   479.49   493.73
                              555.07   555.80   599.20   599.26   706.18
                              710.75   712.66   715.59   717.42   723.01
                              781.36   782.14   783.94   785.56   803.34
                              810.08   891.74   934.42   935.70  1014.09
                             1014.48  1014.65  1016.18  1086.43  1183.69
                             1186.96  1199.93  1200.28  1239.49  1242.76
                             1405.64  1406.32  1425.77  1454.33  1456.79
                             1457.24  1472.38  1489.12  1489.58  1654.47
                             1655.09  1669.09  1676.51  1683.47  1684.05
                             1703.73  1716.64  1738.37  1738.70  1759.45
                             1763.06  1772.70  1797.33  1804.14  1925.16
                             1925.43  1942.15  1943.69  1986.69  1987.99
                             2133.53  2134.16  2154.94  2155.09  2170.61
                             2171.13  2172.67  2173.34  2215.29  2215.89
                             2278.46  2279.08  2368.95  2371.04  3332.75
                             3341.68  4393.47  4393.53  4509.84  4510.37
                             4589.10  4590.05  4590.14  4604.89  4638.56
                             4638.61  4658.42  4658.55  4666.92  4669.37

 Zero-point correction=                           0.293117 (Hartree/Particle)
 Thermal correction to Energy=                    0.321872
 Thermal correction to Enthalpy=                  0.322816
 Thermal correction to Gibbs Free Energy=         0.225476
 Sum of electronic and zero-point Energies=          -1872.180119
 Sum of electronic and thermal Energies=             -1872.151364
 Sum of electronic and thermal Enthalpies=           -1872.150419
 Sum of electronic and thermal Free Energies=        -1872.247760

                     E (Thermal)             CV                S
                      KCal/Mol        Cal/Mol-Kelvin    Cal/Mol-Kelvin
 Total                  201.978            100.917            204.870
 Electronic               0.000              0.000              0.000
 Translational            0.889              2.981             43.989
 Rotational               0.889              2.981             36.817
 Vibrational            200.200             94.955            124.064
 Vibration     1          0.593              1.987              8.317
 Vibration     2          0.593              1.987              8.191
 Vibration     3          0.593              1.986              6.975
 Vibration     4          0.593              1.986              6.605
 Vibration     5          0.593              1.985              6.178
 Vibration     6          0.594              1.983              5.572
 Vibration     7          0.594              1.981              5.281
 Vibration     8          0.595              1.978              4.844
 Vibration     9          0.596              1.976              4.634
 Vibration    10          0.597              1.973              4.454
 Vibration    11          0.599              1.965              3.985
 Vibration    12          0.600              1.961              3.809
 Vibration    13          0.601              1.958              3.727
 Vibration    14          0.604              1.949              3.461
 Vibration    15          0.608              1.936              3.158
 Vibration    16          0.617              1.906              2.708
 Vibration    17          0.617              1.905              2.697
 Vibration    18          0.631              1.861              2.281
 Vibration    19          0.635              1.849              2.197
 Vibration    20          0.638              1.838              2.121
 Vibration    21          0.641              1.831              2.074
 Vibration    22          0.644              1.821              2.019
 Vibration    23          0.645              1.818              2.002
 Vibration    24          0.667              1.748              1.671
 Vibration    25          0.668              1.748              1.669
 Vibration    26          0.678              1.717              1.557
 Vibration    27          0.678              1.716              1.551
 Vibration    28          0.697              1.660              1.378
 Vibration    29          0.715              1.609              1.244
 Vibration    30          0.722              1.589              1.197
 Vibration    31          0.754              1.501              1.016
 Vibration    32          0.755              1.499              1.014
 Vibration    33          0.780              1.434              0.904
 Vibration    34          0.780              1.434              0.904
 Vibration    35          0.847              1.270              0.681
 Vibration    36          0.850              1.263              0.673
 Vibration    37          0.851              1.260              0.670
 Vibration    38          0.853              1.256              0.665
 Vibration    39          0.854              1.253              0.662
 Vibration    40          0.858              1.244              0.652
 Vibration    41          0.898              1.155              0.559
 Vibration    42          0.899              1.154              0.558
 Vibration    43          0.900              1.151              0.555
 Vibration    44          0.901              1.148              0.553
 Vibration    45          0.914              1.121              0.527
 Vibration    46          0.919              1.111              0.518
 Vibration    47          0.980              0.990              0.417

 Normal termination of Gaussian 09 at Mon Jan 10 09:27:05 2005.
