 Gaussian 09, Revision B.01,
 Gaussian 09:  EM64L-G09RevB.01 12-Aug-2010

 ----------------------------
 # opt freq rb3lyp/6-31G(d,p)
 ----------------------------

 ---------------------------------------
 x2-4-Br-Ph-N2-OTf-v1-RB3LYP-6-311++G_dp
 ---------------------------------------
 Symbolic Z-matrix:
 Charge =  1 Multiplicity = 1

 SCF Done:  E(RB3LYP) =  -6785.55165547     A.U. after   19 cycles
 SCF Done:  E(RB3LYP) =  -6785.58403183     A.U. after   15 cycles
 SCF Done:  E(RB3LYP) =  -6785.59137673     A.U. after   16 cycles
 SCF Done:  E(RB3LYP) =  -6785.59448399     A.U. after   16 cycles
 SCF Done:  E(RB3LYP) =  -6785.59549014     A.U. after   13 cycles
 SCF Done:  E(RB3LYP) =  -6785.59589924     A.U. after   15 cycles
 SCF Done:  E(RB3LYP) =  -6785.59604678     A.U. after   12 cycles
 SCF Done:  E(RB3LYP) =  -6785.59630664     A.U. after   15 cycles
 SCF Done:  E(RB3LYP) =  -6785.59644788     A.U. after   12 cycles
 SCF Done:  E(RB3LYP) =  -6785.59675598     A.U. after   13 cycles
 SCF Done:  E(RB3LYP) =  -6785.59797600     A.U. after    9 cycles
 SCF Done:  E(RB3LYP) =  -6785.59797506     A.U. after    9 cycles
 SCF Done:  E(RB3LYP) =  -6785.59797497     A.U. after    8 cycles
 SCF Done:  E(RB3LYP) =  -6785.59797513     A.U. after    8 cycles
 SCF Done:  E(RB3LYP) =  -6785.59797535     A.U. after    7 cycles
 SCF Done:  E(RB3LYP) =  -6785.59797537     A.U. after    7 cycles
 SCF Done:  E(RB3LYP) =  -6785.59797508     A.U. after    8 cycles
 SCF Done:  E(RB3LYP) =  -6785.59797487     A.U. after    8 cycles
 SCF Done:  E(RB3LYP) =  -6785.59797467     A.U. after    7 cycles
 Optimization completed.
    -- Stationary point found.
 Normal termination of Gaussian 09 at Mon Jan 10 06:42:41 2005.

 ----------------------------------------------------------------------
 #N Geom=AllCheck Guess=TCheck SCRF=Check GenChk RB3LYP/6-31G(d,p) Freq
 ----------------------------------------------------------------------

 x2-4-Br-Ph-N2-OTf-v1-RB3LYP-6-311++G_dp
 ---------------------------------------
 Redundant internal coordinates taken from checkpoint file:
 Ph-N2-OTf-N2-Ph.chk
 Charge =  1 Multiplicity = 1

                         Standard orientation:
 ---------------------------------------------------------------------
 Center     Atomic      Atomic             Coordinates (Angstroms)
 Number     Number       Type             X           Y           Z
 ---------------------------------------------------------------------
      1          6           0       -4.137769   -0.283901   -0.172424
      2          6           0       -4.376926    1.039277    0.242317
      3          6           0       -5.652557    1.524926    0.598490
      4          6           0       -6.717684    0.645573    0.540773
      5          6           0       -6.501001   -0.681869    0.132788
      6          6           0       -5.225128   -1.141908   -0.222204
      7          1           0       -3.131502   -0.582919   -0.452166
      8          1           0       -5.788985    2.554425    0.909995
      9          1           0       -7.714074    0.976734    0.807419
     10          1           0       -5.087899   -2.168800   -0.538996
     11          7           0       -3.324544    1.925822    0.316167
     12          7           0       -2.505843    2.678572    0.410254
     13         16           0       -0.077054    0.511411   -0.289531
     14          8           0       -0.287356    1.413509    0.880873
     15          8           0        0.847497   -0.611787   -0.011808
     16          8           0       -1.324325    0.175307   -1.012014
     17          6           0        0.875205    1.569251   -1.485047
     18          9           0        2.059902    1.904819   -0.920356
     19          9           0        0.209425    2.691469   -1.766368
     20          9           0        1.125771    0.909772   -2.616353
     21          1           0        2.854633   -0.810415   -0.279392
     22          6           0        3.820879   -0.597080    0.167199
     23          6           0        3.891006    0.213049    1.314974
     24          6           0        5.012513   -1.095651   -0.334780
     25          6           0        5.100574    0.534024    1.966975
     26          6           0        6.226049   -0.786188    0.295241
     27          1           0        5.005015   -1.725532   -1.216174
     28          6           0        6.273527    0.025243    1.441691
     29          1           0        5.106169    1.162584    2.850375
     30          1           0        7.223949    0.249570    1.910524
     31          7           0        2.736243    0.732428    1.859770
     32          7           0        1.857991    1.197407    2.369367
     33         35           0        7.830754   -1.471106   -0.405505
     34         35           0       -7.960923   -1.864239    0.060000
 ---------------------------------------------------------------------

 SCF Done:  E(RB3LYP) =  -6785.59797467     A.U. after    1 cycles

 The electronic state is 1-A.
 Alpha  occ. eigenvalues -- -483.03529-483.03475 -89.19505 -61.99684 -61.99630
 Alpha  occ. eigenvalues --  -56.51839 -56.51785 -56.51408 -56.51388 -56.51354
 Alpha  occ. eigenvalues --  -56.51333 -24.82437 -24.82081 -24.81933 -19.22377
 Alpha  occ. eigenvalues --  -19.22251 -19.22152 -14.66281 -14.66268 -14.63107
 Alpha  occ. eigenvalues --  -14.63023 -10.52468 -10.42116 -10.42048 -10.39786
 Alpha  occ. eigenvalues --  -10.39730 -10.36955 -10.36907 -10.35675 -10.35600
 Alpha  occ. eigenvalues --  -10.34925 -10.34861 -10.34464 -10.34386  -8.70837
 Alpha  occ. eigenvalues --   -8.70782  -8.21790  -6.66276  -6.66221  -6.64990
 Alpha  occ. eigenvalues --   -6.64935  -6.64848  -6.64793  -6.18237  -6.18231
 Alpha  occ. eigenvalues --   -6.18196  -2.77846  -2.77793  -2.77500  -2.77445
 Alpha  occ. eigenvalues --   -2.77392  -2.77336  -2.76363  -2.76361  -2.76308
 Alpha  occ. eigenvalues --   -2.76306  -1.39968  -1.31335  -1.31239  -1.31130
 Alpha  occ. eigenvalues --   -1.31065  -1.20413  -1.07379  -1.06791  -1.05488
 Alpha  occ. eigenvalues --   -1.05412  -0.98994  -0.98931  -0.91430  -0.91366
 Alpha  occ. eigenvalues --   -0.91116  -0.91066  -0.81631  -0.81569  -0.81381
 Alpha  occ. eigenvalues --   -0.77884  -0.77827  -0.72346  -0.71942  -0.71919
 Alpha  occ. eigenvalues --   -0.67794  -0.67521  -0.66606  -0.66589  -0.66557
 Alpha  occ. eigenvalues --   -0.66491  -0.64493  -0.63903  -0.62567  -0.62030
 Alpha  occ. eigenvalues --   -0.61813  -0.60139  -0.59928  -0.58729  -0.58629
 Alpha  occ. eigenvalues --   -0.58436  -0.57992  -0.55446  -0.55324  -0.54171
 Alpha  occ. eigenvalues --   -0.53930  -0.53189  -0.53151  -0.53062  -0.51759
 Alpha  occ. eigenvalues --   -0.51350  -0.50756  -0.50703  -0.50468  -0.50257
 Alpha  occ. eigenvalues --   -0.49295  -0.45561  -0.45475  -0.42672  -0.42465
 Alpha  occ. eigenvalues --   -0.41149  -0.41065  -0.40494  -0.40451  -0.39398
 Alpha  occ. eigenvalues --   -0.39107  -0.38311  -0.38169  -0.38127  -0.35419
 Alpha virt. eigenvalues --   -0.23528  -0.23500  -0.21371  -0.20767  -0.15617
 Alpha virt. eigenvalues --   -0.15536  -0.12405  -0.12367  -0.11034  -0.10980
 Alpha virt. eigenvalues --   -0.03055  -0.02894   0.00317   0.00511   0.00696

 Mulliken atomic charges:
              1
     1  C   -0.012422
     2  C    0.216812
     3  C   -0.029438
     4  C   -0.090371
     5  C    0.075094
     6  C   -0.097400
     7  H    0.218118
     8  H    0.165495
     9  H    0.165020
    10  H    0.167265
    11  N    0.132681
    12  N   -0.027890
    13  S    1.165219
    14  O   -0.598008
    15  O   -0.589671
    16  O   -0.587743
    17  C    0.571475
    18  F   -0.270285
    19  F   -0.234851
    20  F   -0.228138
    21  H    0.213427
    22  C   -0.013257
    23  C    0.217441
    24  C   -0.098103
    25  C   -0.027004
    26  C    0.075326
    27  H    0.167154
    28  C   -0.091083
    29  H    0.164882
    30  H    0.164818
    31  N    0.125372
    32  N   -0.027122
    33  Br   0.008730
    34  Br   0.008458
 Sum of Mulliken atomic charges =   1.00000

 Dipole moment (field-independent basis, Debye):
    X=             -1.2606    Y=              2.6348    Z=              5.5326  Tot=              6.2562
 Quadrupole moment (field-independent basis, Debye-Ang):
   XX=             10.7538   YY=           -156.2601   ZZ=           -160.8893
   XY=            -11.9678   XZ=             10.9255   YZ=              9.4684

  Exact polarizability: 443.671   7.601 204.697 -20.590  41.117 152.196
 Approx polarizability: 629.464  19.734 385.613 -50.874  97.254 269.206

                     1                      2                      3
                     A                      A                      A
 Frequencies --     4.7368                 7.9595                18.6429
 Red. masses --    16.5348                12.5330                 8.8633
 Frc consts  --     0.0002                 0.0005                 0.0018
 IR Inten    --     0.8865                 0.3677                 2.4881

                     4                      5                      6
                     A                      A                      A
 Frequencies --    19.8697                25.2165                35.4098
 Red. masses --    10.3469                 7.2839                 6.2939
 Frc consts  --     0.0024                 0.0027                 0.0046
 IR Inten    --     0.2972                 1.6921                 0.7940

                     7                      8                      9
                     A                      A                      A
 Frequencies --    43.2530                54.6390                57.7026
 Red. masses --    12.9288                 9.4539                12.8000
 Frc consts  --     0.0143                 0.0166                 0.0251
 IR Inten    --     1.5138                 0.8220                 3.5615

                    10                     11                     12
                     A                      A                      A
 Frequencies --    62.1451                75.2555                81.2143
 Red. masses --     9.9489                 9.5733                10.1674
 Frc consts  --     0.0226                 0.0319                 0.0395
 IR Inten    --     5.0300                 5.6525                 2.1664

                    13                     14                     15
                     A                      A                      A
 Frequencies --    85.6303                95.8085               111.7938
 Red. masses --     9.9912                16.0094                14.7097
 Frc consts  --     0.0432                 0.0866                 0.1083
 IR Inten    --     3.4656                 2.5637                86.8621

                    16                     17                     18
                     A                      A                      A
 Frequencies --   184.5927               193.9615               201.5603
 Red. masses --    12.4331                12.2926                15.7401
 Frc consts  --     0.2496                 0.2725                 0.3768
 IR Inten    --    23.2609                 2.3803                 7.3408

                    19                     20                     21
                     A                      A                      A
 Frequencies --   215.1587               232.8210               233.8597
 Red. masses --    16.5764                 7.4740                 7.5389
 Frc consts  --     0.4521                 0.2387                 0.2429
 IR Inten    --     4.1094                 2.1983                 0.3946

                    22                     23                     24
                     A                      A                      A
 Frequencies --   273.4397               276.0710               278.4009
 Red. masses --     6.1560                 7.0809                12.5356
 Frc consts  --     0.2712                 0.3180                 0.5725
 IR Inten    --    10.7955                18.1924                18.4113

                    25                     26                     27
                     A                      A                      A
 Frequencies --   279.2872               307.4697               333.6008
 Red. masses --    15.4985                17.4211                17.2174
 Frc consts  --     0.7123                 0.9704                 1.1289
 IR Inten    --     7.0376                 7.9255                 2.4870

                    28                     29                     30
                     A                      A                      A
 Frequencies --   343.7138               411.4726               411.6998
 Red. masses --    17.1749                 3.0221                 3.0281
 Frc consts  --     1.1955                 0.3015                 0.3024
 IR Inten    --    18.8760                 0.5112                 0.1415

                    31                     32                     33
                     A                      A                      A
 Frequencies --   459.8271               460.4750               491.4412
 Red. masses --     4.6082                 4.5922                17.3958
 Frc consts  --     0.5741                 0.5737                 2.4754
 IR Inten    --     3.2142                 3.4436                14.3783

                    34                     35                     36
                     A                      A                      A
 Frequencies --   502.7036               525.7304               526.9600
 Red. masses --    17.4556                 7.7608                 7.7281
 Frc consts  --     2.5990                 1.2638                 1.2644
 IR Inten    --    61.5404                 1.7814                 0.1657

                    37                     38                     39
                     A                      A                      A
 Frequencies --   548.7132               549.1513               553.8532
 Red. masses --     5.3560                 5.3620                10.1993
 Frc consts  --     0.9501                 0.9527                 1.8434
 IR Inten    --    10.4637                10.0512                 6.4489

                    40                     41                     42
                     A                      A                      A
 Frequencies --   556.9440               562.2302               565.0332
 Red. masses --     8.4858                11.6589                15.2892
 Frc consts  --     1.5508                 2.1714                 2.8760
 IR Inten    --     9.7177                 1.2779                17.5947

                    43                     44                     45
                     A                      A                      A
 Frequencies --   619.3833               644.5373               645.3802
 Red. masses --    19.9137                 7.4136                 7.4963
 Frc consts  --     4.5011                 1.8146                 1.8396
 IR Inten    --   152.2988                 5.6409                 2.5332

                    46                     47                     48
                     A                      A                      A
 Frequencies --   708.2826               709.7654               756.7397
 Red. masses --     4.1133                 4.0846                18.2956
 Frc consts  --     1.2158                 1.2123                 6.1729
 IR Inten    --     0.0001                 0.2081                 2.2356

                    49                     50                     51
                     A                      A                      A
 Frequencies --   788.4261               788.8178               836.1653
 Red. masses --     6.7725                 6.7828                 1.3128
 Frc consts  --     2.4804                 2.4866                 0.5408
 IR Inten    --    54.8976                 8.4075                14.7568

                    52                     53                     54
                     A                      A                      A
 Frequencies --   836.8111               877.2861               879.7562
 Red. masses --     1.3156                 1.3544                 1.3545
 Frc consts  --     0.5428                 0.6141                 0.6177
 IR Inten    --    16.9718                29.1322                30.8650

                    55                     56                     57
                     A                      A                      A
 Frequencies --   990.3426               992.4944               992.9102
 Red. masses --    11.5713                 1.3408                 1.3546
 Frc consts  --     6.6866                 0.7781                 0.7869
 IR Inten    --   183.9137                 1.5827                 3.6543

                    58                     59                     60
                     A                      A                      A
 Frequencies --  1025.0428              1025.1261              1027.2079
 Red. masses --     3.5064                 3.7730                 1.3624
 Frc consts  --     2.1707                 2.3361                 0.8470
 IR Inten    --    23.2941                 4.6332                 1.6893

                    61                     62                     63
                     A                      A                      A
 Frequencies --  1033.9537              1088.5037              1089.5126
 Red. masses --     1.3105                 3.4587                 3.4765
 Frc consts  --     0.8254                 2.4145                 2.4314
 IR Inten    --     5.5715               109.6369               108.2121

                    64                     65                     66
                     A                      A                      A
 Frequencies --  1142.0254              1145.5761              1145.8330
 Red. masses --     2.4513                 1.4446                 2.9712
 Frc consts  --     1.8836                 1.1170                 2.2984
 IR Inten    --   442.2561                41.7217                50.8065

                    67                     68                     69
                     A                      A                      A
 Frequencies --  1146.8736              1179.8181              1187.3304
 Red. masses --     1.5022                11.9024                12.1701
 Frc consts  --     1.1641                 9.7614                10.1085
 IR Inten    --    29.0073                64.6568               164.2767

                    70                     71                     72
                     A                      A                      A
 Frequencies --  1218.2039              1221.1277              1234.2784
 Red. masses --     1.4772                 1.3419                 6.8859
 Frc consts  --     1.2916                 1.1789                 6.1807
 IR Inten    --    95.1390                16.2357                91.8107

                    73                     74                     75
                     A                      A                      A
 Frequencies --  1251.2426              1261.5310              1333.8961
 Red. masses --    10.0353                13.1135                 1.3576
 Frc consts  --     9.2569                12.2960                 1.4232
 IR Inten    --   406.5092               385.9978                 2.6596

                    76                     77                     78
                     A                      A                      A
 Frequencies --  1334.3044              1359.5422              1360.4066
 Red. masses --     1.3582                 6.3966                 6.3512
 Frc consts  --     1.4247                 6.9660                 6.9254
 IR Inten    --     1.3537                15.4357                12.2537

                    79                     80                     81
                     A                      A                      A
 Frequencies --  1457.2633              1457.4963              1497.9252
 Red. masses --     3.0955                 3.0976                 1.9698
 Frc consts  --     3.8731                 3.8769                 2.6041
 IR Inten    --    20.1119                25.1727                31.2440

                    82                     83                     84
                     A                      A                      A
 Frequencies --  1498.3167              1583.9205              1584.2632
 Red. masses --     1.9663                 6.8829                 6.8787
 Frc consts  --     2.6007                10.1739                10.1721
 IR Inten    --     3.4159                 2.6212                 4.3766

                    85                     86                     87
                     A                      A                      A
 Frequencies --  1615.3143              1616.1280              2330.9772
 Red. masses --     5.2970                 5.3301                13.9351
 Frc consts  --     8.1432                 8.2023                44.6106
 IR Inten    --   532.9389               181.0894               182.0154

                    88                     89                     90
                     A                      A                      A
 Frequencies --  2338.3090              3197.7372              3205.0280
 Red. masses --    13.9378                 1.0963                 1.0960
 Frc consts  --    44.9003                 6.6048                 6.6332
 IR Inten    --   194.4238               268.3139               146.9266

                    91                     92                     93
                     A                      A                      A
 Frequencies --  3225.3824              3226.0673              3236.5022
 Red. masses --     1.0911                 1.0910                 1.0938
 Frc consts  --     6.6880                 6.6902                 6.7506
 IR Inten    --     1.3530                 1.4069                 7.0141

                    94                     95                     96
                     A                      A                      A
 Frequencies --  3236.8768              3240.7049              3240.7582
 Red. masses --     1.0938                 1.0965                 1.0964
 Frc consts  --     6.7522                 6.7849                 6.7844
 IR Inten    --     7.7573                 2.7286                 2.4800

 - Thermochemistry -
 -------------------
 Temperature   298.150 Kelvin.  Pressure   1.00000 Atm.
 Atom     1 has atomic number  6 and mass  12.00000

 Molecular mass:   514.86359 amu.
 Principal axes and moments of inertia in atomic units:
                           1         2         3
     Eigenvalues --  5589.20322********************
           X            0.99999  -0.00361   0.00353
           Y            0.00350   0.99954   0.03029
           Z           -0.00364  -0.03027   0.99954
 This molecule is an asymmetric top.
 Rotational symmetry number  1.
 Warning -- assumption of classical behavior for rotation
           may cause significant error
 Rotational temperatures (Kelvin)      0.01550     0.00159     0.00154
 Rotational constants (GHZ):           0.32290     0.03311     0.03203
 Zero-point vibrational energy     543863.4 (Joules/Mol)
                                  129.98646 (Kcal/Mol)
 Warning -- explicit consideration of  43 degrees of freedom as
           vibrations may cause significant error
 Vibrational temperatures:      6.82    11.45    26.82    28.59    36.28
          (Kelvin)             50.95    62.23    78.61    83.02    89.41
                              108.28   116.85   123.20   137.85   160.85
                              265.59   279.07   290.00   309.57   334.98
                              336.47   393.42   397.20   400.56   401.83
                              442.38   479.98   494.53   592.02   592.34
                              661.59   662.52   707.07   723.28   756.41
                              758.18   789.47   790.11   796.87   801.32
                              808.92   812.96   891.15   927.34   928.56
                             1019.06  1021.19  1088.78  1134.37  1134.93
                             1203.05  1203.98  1262.22  1265.77  1424.88
                             1427.98  1428.57  1474.81  1474.93  1477.92
                             1487.63  1566.11  1567.56  1643.12  1648.23
                             1648.60  1650.09  1697.49  1708.30  1752.72
                             1756.93  1775.85  1800.26  1815.06  1919.18
                             1919.76  1956.08  1957.32  2096.67  2097.01
                             2155.18  2155.74  2278.91  2279.40  2324.07
                             2325.24  3353.75  3364.30  4600.82  4611.31
                             4640.60  4641.59  4656.60  4657.14  4662.65
                             4662.72

 Zero-point correction=                           0.207147 (Hartree/Particle)
 Thermal correction to Energy=                    0.233498
 Thermal correction to Enthalpy=                  0.234443
 Thermal correction to Gibbs Free Energy=         0.140017
 Sum of electronic and zero-point Energies=          -6785.390828
 Sum of electronic and thermal Energies=             -6785.364476
 Sum of electronic and thermal Enthalpies=           -6785.363532
 Sum of electronic and thermal Free Energies=        -6785.457957

                     E (Thermal)             CV                S
                      KCal/Mol        Cal/Mol-Kelvin    Cal/Mol-Kelvin
 Total                  146.522             90.738            198.734
 Electronic               0.000              0.000              0.000
 Translational            0.889              2.981             44.603
 Rotational               0.889              2.981             38.082
 Vibrational            144.745             84.777            116.050
 Vibration     1          0.593              1.987              9.496
 Vibration     2          0.593              1.987              8.465
 Vibration     3          0.593              1.986              6.774
 Vibration     4          0.593              1.986              6.647
 Vibration     5          0.593              1.985              6.174
 Vibration     6          0.594              1.982              5.501
 Vibration     7          0.595              1.980              5.104
 Vibration     8          0.596              1.976              4.642
 Vibration     9          0.596              1.974              4.534
 Vibration    10          0.597              1.972              4.388
 Vibration    11          0.599              1.966              4.011
 Vibration    12          0.600              1.962              3.861
 Vibration    13          0.601              1.959              3.758
 Vibration    14          0.603              1.952              3.538
 Vibration    15          0.607              1.940              3.238
 Vibration    16          0.631              1.861              2.281
 Vibration    17          0.635              1.848              2.190
 Vibration    18          0.638              1.838              2.119
 Vibration    19          0.645              1.818              1.999
 Vibration    20          0.654              1.791              1.857
 Vibration    21          0.654              1.789              1.849
 Vibration    22          0.676              1.722              1.574
 Vibration    23          0.678              1.718              1.558
 Vibration    24          0.679              1.713              1.543
 Vibration    25          0.680              1.712              1.538
 Vibration    26          0.697              1.660              1.376
 Vibration    27          0.715              1.608              1.243
 Vibration    28          0.722              1.588              1.195
 Vibration    29          0.775              1.445              0.921
 Vibration    30          0.776              1.445              0.921
 Vibration    31          0.818              1.339              0.767
 Vibration    32          0.818              1.338              0.765
 Vibration    33          0.847              1.269              0.680
 Vibration    34          0.858              1.244              0.651
 Vibration    35          0.881              1.193              0.597
 Vibration    36          0.882              1.190              0.594
 Vibration    37          0.904              1.143              0.547
 Vibration    38          0.904              1.142              0.546
 Vibration    39          0.909              1.131              0.536
 Vibration    40          0.912              1.125              0.530
 Vibration    41          0.918              1.113              0.519
 Vibration    42          0.921              1.107              0.514
 Vibration    43          0.979              0.991              0.417

 Normal termination of Gaussian 09 at Mon Jan 10 07:07:35 2005.
