 Gaussian 09, Revision B.01,
 Gaussian 09:  EM64L-G09RevB.01 12-Aug-2010

 ----------------------------
 # opt freq rb3lyp/6-31G(d,p)
 ----------------------------

 ----------------------------------------
 x2-4-NO2-Ph-N2-OTf-v1-RB3LYP-6-311++G_dp
 ----------------------------------------
 Symbolic Z-matrix:
 Charge =  1 Multiplicity = 1

 SCF Done:  E(RB3LYP) =  -2052.30057745     A.U. after   19 cycles
 SCF Done:  E(RB3LYP) =  -2052.34290154     A.U. after   16 cycles
 SCF Done:  E(RB3LYP) =  -2052.35432572     A.U. after   15 cycles
 SCF Done:  E(RB3LYP) =  -2052.35701247     A.U. after   17 cycles
 SCF Done:  E(RB3LYP) =  -2052.35129037     A.U. after   17 cycles
 SCF Done:  E(RB3LYP) =  -2052.35730768     A.U. after   15 cycles
 SCF Done:  E(RB3LYP) =  -2052.35835782     A.U. after   15 cycles
 SCF Done:  E(RB3LYP) =  -2052.35826008     A.U. after   13 cycles
 SCF Done:  E(RB3LYP) =  -2052.35611789     A.U. after   16 cycles
 SCF Done:  E(RB3LYP) =  -2052.35861382     A.U. after   15 cycles
 SCF Done:  E(RB3LYP) =  -2052.36112045     A.U. after    9 cycles
 SCF Done:  E(RB3LYP) =  -2052.36112033     A.U. after    8 cycles
 SCF Done:  E(RB3LYP) =  -2052.36112018     A.U. after    9 cycles
 SCF Done:  E(RB3LYP) =  -2052.36112009     A.U. after    8 cycles
 SCF Done:  E(RB3LYP) =  -2052.36112002     A.U. after    8 cycles
 SCF Done:  E(RB3LYP) =  -2052.36111996     A.U. after    7 cycles
 SCF Done:  E(RB3LYP) =  -2052.36111988     A.U. after    8 cycles
 SCF Done:  E(RB3LYP) =  -2052.36111978     A.U. after    8 cycles
 SCF Done:  E(RB3LYP) =  -2052.36111968     A.U. after    8 cycles
 Optimization completed.
    -- Stationary point found.
 Normal termination of Gaussian 09 at Mon Jan 10 17:11:47 2005.

 ----------------------------------------------------------------------
 #N Geom=AllCheck Guess=TCheck SCRF=Check GenChk RB3LYP/6-31G(d,p) Freq
 ----------------------------------------------------------------------

 x2-4-NO2-Ph-N2-OTf-v1-RB3LYP-6-311++G_dp
 ----------------------------------------
 Redundant internal coordinates taken from checkpoint file:
 Ph-N2-OTf-N2-Ph.chk
 Charge =  1 Multiplicity = 1

                         Standard orientation:
 ---------------------------------------------------------------------
 Center     Atomic      Atomic             Coordinates (Angstroms)
 Number     Number       Type             X           Y           Z
 ---------------------------------------------------------------------
      1          6           0       -4.165047    0.534672    0.038187
      2          6           0       -4.375709   -0.837899   -0.167601
      3          6           0       -5.633743   -1.420154   -0.418262
      4          6           0       -6.730651   -0.574508   -0.468279
      5          6           0       -6.531104    0.792431   -0.267232
      6          6           0       -5.283974    1.358719   -0.016129
      7          1           0       -3.163858    0.900747    0.244693
      8          1           0       -5.735925   -2.488892   -0.567918
      9          1           0       -7.729000   -0.948880   -0.657343
     10          1           0       -5.201856    2.427964    0.135162
     11          7           0       -3.289491   -1.703653   -0.131850
     12          7           0       -2.468073   -2.456674   -0.134699
     13         16           0       -0.066792   -0.223966    0.282678
     14          8           0       -0.231566   -1.345325   -0.692244
     15          8           0        0.875479    0.819497   -0.181603
     16          8           0       -1.345203    0.246361    0.859558
     17          6           0        0.824695   -1.013252    1.709938
     18          9           0        2.024473   -1.462319    1.273551
     19          9           0        0.131854   -2.048090    2.188405
     20          9           0        1.036403   -0.131516    2.685223
     21          1           0        2.876034    1.086664    0.107887
     22          6           0        3.843875    0.755942   -0.255173
     23          6           0        3.914593   -0.234524   -1.247036
     24          6           0        5.049698    1.268303    0.210461
     25          6           0        5.116180   -0.730794   -1.789779
     26          6           0        6.242599    0.780809   -0.317148
     27          1           0        5.076143    2.035841    0.974077
     28          6           0        6.302700   -0.204933   -1.303624
     29          1           0        5.109350   -1.496813   -2.556690
     30          1           0        7.265073   -0.538816   -1.670990
     31          7           0        2.740494   -0.777878   -1.754663
     32          7           0        1.859168   -1.272997   -2.223631
     33          7           0        7.525403    1.338942    0.195290
     34          8           0        7.444185    2.201658    1.059855
     35          8           0        8.554471    0.887300   -0.291929
     36          7           0       -7.719013    1.690043   -0.323688
     37          8           0       -7.515429    2.884245   -0.148236
     38          8           0       -8.800179    1.157465   -0.542098
 ---------------------------------------------------------------------

 SCF Done:  E(RB3LYP) =  -2052.36111968     A.U. after    1 cycles

 The electronic state is 1-A.
 Alpha  occ. eigenvalues --  -89.21192 -24.83851 -24.83510 -24.83332 -19.30160
 Alpha  occ. eigenvalues --  -19.30150 -19.30102 -19.30090 -19.24222 -19.23995
 Alpha  occ. eigenvalues --  -19.23888 -14.69301 -14.69242 -14.68517 -14.68433
 Alpha  occ. eigenvalues --  -14.65613 -14.65610 -10.53990 -10.44568 -10.44523
 Alpha  occ. eigenvalues --  -10.40534 -10.40475 -10.38815 -10.38776 -10.37620
 Alpha  occ. eigenvalues --  -10.37574 -10.36789 -10.36734 -10.36446 -10.36383
 Alpha  occ. eigenvalues --   -8.23489  -6.19939  -6.19933  -6.19884  -1.41421
 Alpha  occ. eigenvalues --   -1.34641  -1.34582  -1.33502  -1.33450  -1.32780
 Alpha  occ. eigenvalues --   -1.32660  -1.22151  -1.17624  -1.17564  -1.09160
 Alpha  occ. eigenvalues --   -1.08516  -1.07485  -1.07442  -1.00659  -1.00618
 Alpha  occ. eigenvalues --   -0.93217  -0.93173  -0.90699  -0.90662  -0.82936
 Alpha  occ. eigenvalues --   -0.79866  -0.79830  -0.79446  -0.79405  -0.73879
 Alpha  occ. eigenvalues --   -0.73060  -0.73034  -0.69250  -0.68960  -0.68745
 Alpha  occ. eigenvalues --   -0.68695  -0.68665  -0.68648  -0.67948  -0.67887
 Alpha  occ. eigenvalues --   -0.65801  -0.65420  -0.65227  -0.65167  -0.64443
 Alpha  occ. eigenvalues --   -0.63219  -0.63055  -0.61691  -0.61495  -0.60835
 Alpha  occ. eigenvalues --   -0.60618  -0.60225  -0.59774  -0.57807  -0.57737
 Alpha  occ. eigenvalues --   -0.56784  -0.56672  -0.55716  -0.55357  -0.54604
 Alpha  occ. eigenvalues --   -0.54330  -0.54279  -0.53165  -0.52778  -0.52194
 Alpha  occ. eigenvalues --   -0.52033  -0.50686  -0.44729  -0.44364  -0.44120
 Alpha  occ. eigenvalues --   -0.44057  -0.43215  -0.43145  -0.42384  -0.42352
 Alpha  occ. eigenvalues --   -0.42236  -0.42171  -0.41130  -0.41043  -0.40985
 Alpha  occ. eigenvalues --   -0.40789  -0.39856  -0.37249
 Alpha virt. eigenvalues --   -0.26303  -0.26258  -0.23454  -0.22771  -0.19064
 Alpha virt. eigenvalues --   -0.19020  -0.17489  -0.17423  -0.12048  -0.12002
 Alpha virt. eigenvalues --   -0.06410  -0.06247  -0.01141  -0.00542  -0.00379

 Mulliken atomic charges:
              1
     1  C   -0.029122
     2  C    0.237224
     3  C   -0.044538
     4  C   -0.088205
     5  C    0.276437
     6  C   -0.095014
     7  H    0.223829
     8  H    0.174789
     9  H    0.193621
    10  H    0.195185
    11  N    0.142101
    12  N   -0.011869
    13  S    1.164710
    14  O   -0.597401
    15  O   -0.589516
    16  O   -0.584871
    17  C    0.576351
    18  F   -0.267563
    19  F   -0.232759
    20  F   -0.223712
    21  H    0.219813
    22  C   -0.030006
    23  C    0.238430
    24  C   -0.095535
    25  C   -0.043213
    26  C    0.276766
    27  H    0.195136
    28  C   -0.088664
    29  H    0.174317
    30  H    0.193477
    31  N    0.136173
    32  N   -0.007468
    33  N    0.412035
    34  O   -0.351913
    35  O   -0.354652
    36  N    0.412014
    37  O   -0.351964
    38  O   -0.354421
 Sum of Mulliken atomic charges =   1.00000

 Dipole moment (field-independent basis, Debye):
    X=             -1.3931    Y=             -6.2119    Z=             -5.9197  Tot=              8.6931
 Quadrupole moment (field-independent basis, Debye-Ang):
   XX=            -67.7636   YY=           -158.3257   ZZ=           -156.5380
   XY=             14.1989   XZ=            -19.8728   YZ=              6.0496

  Exact polarizability: 405.526  -0.965 201.441  11.272  37.644 135.833
 Approx polarizability: 560.369   0.365 401.985  21.663  97.676 241.597

                     1                      2                      3
                     A                      A                      A
 Frequencies --     5.9964                 7.2166                14.6633
 Red. masses --    12.6267                12.3441                10.8294
 Frc consts  --     0.0003                 0.0004                 0.0014
 IR Inten    --     0.1799                 0.2236                 4.6104

                     4                      5                      6
                     A                      A                      A
 Frequencies --    16.2172                21.9652                28.3809
 Red. masses --     9.0858                 7.6564                10.1931
 Frc consts  --     0.0014                 0.0022                 0.0048
 IR Inten    --     0.0787                 1.0167                 0.5680

                     7                      8                      9
                     A                      A                      A
 Frequencies --    37.0966                44.4634                53.0867
 Red. masses --    14.1280                15.2196                 7.7881
 Frc consts  --     0.0115                 0.0177                 0.0129
 IR Inten    --     1.2883                 1.2787                 0.7427

                    10                     11                     12
                     A                      A                      A
 Frequencies --    60.3540                61.4085                64.4818
 Red. masses --     6.4399                 9.4085                 9.2797
 Frc consts  --     0.0138                 0.0209                 0.0227
 IR Inten    --     0.6722                 8.0634                 4.8149

                    13                     14                     15
                     A                      A                      A
 Frequencies --    78.8212                83.8397                87.7040
 Red. masses --     9.2954                10.0830                10.0722
 Frc consts  --     0.0340                 0.0418                 0.0456
 IR Inten    --     7.4636                 6.3427                 6.0019

                    16                     17                     18
                     A                      A                      A
 Frequencies --   103.7912               115.2350               189.8202
 Red. masses --    15.4645                14.0767                13.5143
 Frc consts  --     0.0982                 0.1101                 0.2869
 IR Inten    --     0.9390                94.6953                11.8081

                    19                     20                     21
                     A                      A                      A
 Frequencies --   197.1050               201.9996               215.0818
 Red. masses --    12.2955                15.0034                16.6214
 Frc consts  --     0.2814                 0.3607                 0.4530
 IR Inten    --     5.5326                11.4846                 3.3194

                    22                     23                     24
                     A                      A                      A
 Frequencies --   228.2075               231.0913               268.3991
 Red. masses --     8.1730                 8.2697                 7.5536
 Frc consts  --     0.2508                 0.2602                 0.3206
 IR Inten    --     3.2584                 1.7472                 9.0062

                    25                     26                     27
                     A                      A                      A
 Frequencies --   269.3375               307.5492               331.0623
 Red. masses --     7.5690                17.6371                13.5731
 Frc consts  --     0.3235                 0.9829                 0.8765
 IR Inten    --     3.6875                 3.9156                34.2705

                    28                     29                     30
                     A                      A                      A
 Frequencies --   331.7663               333.2350               343.6279
 Red. masses --    13.4720                16.9163                17.2671
 Frc consts  --     0.8737                 1.1068                 1.2013
 IR Inten    --     4.8083                 1.2066                17.6854

                    31                     32                     33
                     A                      A                      A
 Frequencies --   409.3037               409.6225               434.4455
 Red. masses --     3.0776                 3.0795                 5.2203
 Frc consts  --     0.3038                 0.3044                 0.5805
 IR Inten    --     0.1248                 0.5154                 0.1257

                    34                     35                     36
                     A                      A                      A
 Frequencies --   434.9299               491.0496               494.3563
 Red. masses --     5.1975                16.8026                11.3362
 Frc consts  --     0.5793                 2.3871                 1.6323
 IR Inten    --     0.2253                13.4158                 0.1049

                    37                     38                     39
                     A                      A                      A
 Frequencies --   495.0254               503.3182               546.1808
 Red. masses --    11.6826                17.5354                 6.2024
 Frc consts  --     1.6867                 2.6173                 1.0901
 IR Inten    --     1.6253                57.1417                 4.0401

                    40                     41                     42
                     A                      A                      A
 Frequencies --   546.4862               551.8674               552.3792
 Red. masses --     6.2355                 5.8000                 5.6413
 Frc consts  --     1.0972                 1.0408                 1.0142
 IR Inten    --     3.4456                 4.8432                 7.7177

                    43                     44                     45
                     A                      A                      A
 Frequencies --   557.8459               563.4767               574.3052
 Red. masses --    14.8085                16.4605                 8.1861
 Frc consts  --     2.7151                 3.0793                 1.5908
 IR Inten    --     4.1537                19.8714                 1.2559

                    46                     47                     48
                     A                      A                      A
 Frequencies --   575.7404               618.2613               643.4757
 Red. masses --     8.4380                19.6608                 7.3604
 Frc consts  --     1.6479                 4.4279                 1.7956
 IR Inten    --     1.4111               141.9263                10.1676

                    49                     50                     51
                     A                      A                      A
 Frequencies --   644.6419               663.8576               665.2173
 Red. masses --     7.4729                 4.7633                 4.7246
 Frc consts  --     1.8297                 1.2368                 1.2318
 IR Inten    --     3.1907                15.1485                16.1449

                    52                     53                     54
                     A                      A                      A
 Frequencies --   747.0688               748.0453               757.9703
 Red. masses --     4.2193                 4.2574                18.2677
 Frc consts  --     1.3874                 1.4036                 6.1836
 IR Inten    --    18.6916                18.5772                 1.7506

                    55                     56                     57
                     A                      A                      A
 Frequencies --   774.8279               775.1686               846.6591
 Red. masses --     7.4276                 7.4206                 1.3070
 Frc consts  --     2.6273                 2.6271                 0.5520
 IR Inten    --    58.2710                 9.7508                 4.3854

                    58                     59                     60
                     A                      A                      A
 Frequencies --   847.8716               865.5662               865.7068
 Red. masses --     1.3161                10.2142                10.2119
 Frc consts  --     0.5575                 4.5087                 4.5092
 IR Inten    --     6.1340                68.4747                29.0373

                    61                     62                     63
                     A                      A                      A
 Frequencies --   900.9783               904.5453               989.6899
 Red. masses --     1.5380                 1.5231                14.7313
 Frc consts  --     0.7356                 0.7342                 8.5014
 IR Inten    --    35.1320                31.4794               189.7864

                    64                     65                     66
                     A                      A                      A
 Frequencies --   995.4458               996.0667              1022.4444
 Red. masses --     1.3224                 1.3233                 1.3096
 Frc consts  --     0.7721                 0.7735                 0.8066
 IR Inten    --     0.3231                 0.4185                 2.0826

                    67                     68                     69
                     A                      A                      A
 Frequencies --  1025.6929              1025.8496              1030.1593
 Red. masses --     2.9034                 2.9308                 1.3154
 Frc consts  --     1.7996                 1.8172                 0.8225
 IR Inten    --     7.1769                 3.9786                 5.3737

                    70                     71                     72
                     A                      A                      A
 Frequencies --  1111.8020              1112.4736              1126.2866
 Red. masses --     2.8990                 2.9297                 4.2175
 Frc consts  --     2.1113                 2.1362                 3.1521
 IR Inten    --   176.5332                41.1751               127.4066

                    73                     74                     75
                     A                      A                      A
 Frequencies --  1127.5233              1133.2422              1133.7264
 Red. masses --     4.2143                 1.3063                 1.3137
 Frc consts  --     3.1567                 0.9884                 0.9949
 IR Inten    --    29.2091                11.5493                 8.9129

                    76                     77                     78
                     A                      A                      A
 Frequencies --  1173.6478              1187.1654              1203.2589
 Red. masses --    10.9879                12.1444                 1.4048
 Frc consts  --     8.9175                10.0844                 1.1984
 IR Inten    --    83.0398               118.5793                57.8961

                    79                     80                     81
                     A                      A                      A
 Frequencies --  1205.8584              1233.5579              1253.1485
 Red. masses --     1.3944                10.8908                12.3335
 Frc consts  --     1.1947                 9.7641                11.4114
 IR Inten    --    22.8453               108.1800               479.8801

                    82                     83                     84
                     A                      A                      A
 Frequencies --  1265.6413              1324.5649              1325.0708
 Red. masses --    13.1911                 1.3124                 1.3102
 Frc consts  --    12.4495                 1.3566                 1.3554
 IR Inten    --   329.7423                 8.9742                 5.1103

                    85                     86                     87
                     A                      A                      A
 Frequencies --  1379.9210              1380.2237              1389.3233
 Red. masses --     9.5114                 9.5805                14.5037
 Frc consts  --    10.6710                10.7532                16.4944
 IR Inten    --    40.6469                48.0258               299.8371

                    88                     89                     90
                     A                      A                      A
 Frequencies --  1389.8811              1451.5021              1451.8584
 Red. masses --    14.5115                 3.2799                 3.2825
 Frc consts  --    16.5165                 4.0714                 4.0767
 IR Inten    --   100.9643                 9.5598                11.6436

                    91                     92                     93
                     A                      A                      A
 Frequencies --  1497.4805              1497.8635              1616.2001
 Red. masses --     2.0503                 2.0468                 8.3917
 Frc consts  --     2.7088                 2.7057                12.9149
 IR Inten    --    14.2159                 0.6576                42.0774

                    94                     95                     96
                     A                      A                      A
 Frequencies --  1616.5951              1628.3468              1628.6759
 Red. masses --     8.4068                 5.6545                 5.6542
 Frc consts  --    12.9444                 8.8336                 8.8366
 IR Inten    --    60.4094                73.2419                48.3052

                    97                     98                     99
                     A                      A                      A
 Frequencies --  1682.6964              1682.8435              2350.5831
 Red. masses --    12.4707                12.4892                13.9468
 Frc consts  --    20.8043                20.8387                45.4022
 IR Inten    --   111.5301               171.7023                39.5416

                   100                    101                    102
                     A                      A                      A
 Frequencies --  2352.4124              3206.5691              3210.1986
 Red. masses --    13.9528                 1.0965                 1.0964
 Frc consts  --    45.4923                 6.6425                 6.6573
 IR Inten    --    98.6791               288.0684                98.5192

                   103                    104                    105
                     A                      A                      A
 Frequencies --  3231.0418              3231.5059              3249.7852
 Red. masses --     1.0929                 1.0928                 1.0933
 Frc consts  --     6.7220                 6.7234                 6.8027
 IR Inten    --     3.5178                 3.4585                18.5622

                   106                    107                    108
                     A                      A                      A
 Frequencies --  3250.1169              3251.7079              3252.0884
 Red. masses --     1.0933                 1.0949                 1.0948
 Frc consts  --     6.8042                 6.8213                 6.8219
 IR Inten    --    20.9989                19.7966                19.0371

 - Thermochemistry -
 -------------------
 Temperature   298.150 Kelvin.  Pressure   1.00000 Atm.
 Atom     1 has atomic number  6 and mass  12.00000

 Molecular mass:   449.01273 amu.
 Principal axes and moments of inertia in atomic units:
                           1         2         3
     Eigenvalues --  4736.54642********************
           X            1.00000   0.00126  -0.00173
           Y           -0.00113   0.99745   0.07131
           Z            0.00181  -0.07131   0.99745
 This molecule is an asymmetric top.
 Rotational symmetry number  1.
 Warning -- assumption of classical behavior for rotation
           may cause significant error
 Rotational temperatures (Kelvin)      0.01829     0.00215     0.00211
 Rotational constants (GHZ):           0.38102     0.04474     0.04387
 Zero-point vibrational energy     607852.1 (Joules/Mol)
                                  145.28014 (Kcal/Mol)
 Warning -- explicit consideration of  47 degrees of freedom as
           vibrations may cause significant error
 Vibrational temperatures:      8.63    10.38    21.10    23.33    31.60
          (Kelvin)             40.83    53.37    63.97    76.38    86.84
                               88.35    92.77   113.41   120.63   126.19
                              149.33   165.80   273.11   283.59   290.63
                              309.45   328.34   332.49   386.17   387.52
                              442.49   476.32   477.34   479.45   494.40
                              588.90   589.35   625.07   625.77   706.51
                              711.27   712.23   724.16   785.83   786.27
                              794.01   794.75   802.61   810.72   826.30
                              828.36   889.54   925.82   927.49   955.14
                              957.10  1074.86  1076.27  1090.55  1114.80
                             1115.29  1218.15  1219.90  1245.36  1245.56
                             1296.31  1301.44  1423.94  1432.22  1433.12
                             1471.07  1475.74  1475.97  1482.17  1599.63
                             1600.60  1620.47  1622.25  1630.48  1631.18
                             1688.62  1708.06  1731.22  1734.96  1774.81
                             1803.00  1820.97  1905.75  1906.48  1985.40
                             1985.83  1998.92  1999.73  2088.39  2088.90
                             2154.54  2155.09  2325.35  2325.92  2342.82
                             2343.30  2421.02  2421.23  3381.96  3384.59
                             4613.53  4618.75  4648.74  4649.41  4675.71
                             4676.19  4678.48  4679.02

 Zero-point correction=                           0.231519 (Hartree/Particle)
 Thermal correction to Energy=                    0.260235
 Thermal correction to Enthalpy=                  0.261179
 Thermal correction to Gibbs Free Energy=         0.161443
 Sum of electronic and zero-point Energies=          -2052.129601
 Sum of electronic and thermal Energies=             -2052.100885
 Sum of electronic and thermal Enthalpies=           -2052.099940
 Sum of electronic and thermal Free Energies=        -2052.199677

                     E (Thermal)             CV                S
                      KCal/Mol        Cal/Mol-Kelvin    Cal/Mol-Kelvin
 Total                  163.300             99.979            209.912
 Electronic               0.000              0.000              0.000
 Translational            0.889              2.981             44.195
 Rotational               0.889              2.981             37.306
 Vibrational            161.523             94.018            128.412
 Vibration     1          0.593              1.987              9.027
 Vibration     2          0.593              1.987              8.659
 Vibration     3          0.593              1.986              7.251
 Vibration     4          0.593              1.986              7.051
 Vibration     5          0.593              1.985              6.448
 Vibration     6          0.593              1.984              5.939
 Vibration     7          0.594              1.982              5.408
 Vibration     8          0.595              1.980              5.050
 Vibration     9          0.596              1.976              4.699
 Vibration    10          0.597              1.973              4.446
 Vibration    11          0.597              1.973              4.411
 Vibration    12          0.597              1.971              4.315
 Vibration    13          0.600              1.963              3.920
 Vibration    14          0.601              1.960              3.799
 Vibration    15          0.601              1.958              3.711
 Vibration    16          0.605              1.946              3.382
 Vibration    17          0.608              1.937              3.179
 Vibration    18          0.633              1.854              2.230
 Vibration    19          0.636              1.844              2.160
 Vibration    20          0.639              1.837              2.115
 Vibration    21          0.645              1.818              2.000
 Vibration    22          0.651              1.798              1.893
 Vibration    23          0.653              1.793              1.870
 Vibration    24          0.673              1.731              1.606
 Vibration    25          0.674              1.730              1.600
 Vibration    26          0.697              1.659              1.375
 Vibration    27          0.713              1.613              1.255
 Vibration    28          0.714              1.612              1.251
 Vibration    29          0.715              1.609              1.244
 Vibration    30          0.722              1.588              1.195
 Vibration    31          0.774              1.450              0.929
 Vibration    32          0.774              1.449              0.928
 Vibration    33          0.795              1.395              0.844
 Vibration    34          0.796              1.394              0.843
 Vibration    35          0.847              1.270              0.681
 Vibration    36          0.850              1.263              0.672
 Vibration    37          0.851              1.261              0.671
 Vibration    38          0.859              1.243              0.650
 Vibration    39          0.901              1.148              0.552
 Vibration    40          0.902              1.147              0.552
 Vibration    41          0.907              1.136              0.540
 Vibration    42          0.908              1.134              0.539
 Vibration    43          0.913              1.123              0.528
 Vibration    44          0.919              1.110              0.517
 Vibration    45          0.931              1.087              0.496
 Vibration    46          0.932              1.084              0.493
 Vibration    47          0.978              0.993              0.419

 Normal termination of Gaussian 09 at Mon Jan 10 17:44:18 2005.
