 Gaussian 09, Revision B.01,
 Gaussian 09:  EM64L-G09RevB.01 12-Aug-2010

 ----------------------------
 # opt freq rb3lyp/6-31G(d,p)
 ----------------------------

 ----------------------------------------
 x2-4-NO2-Ph-N2-BF4-v1-RB3LYP-6-311++G_dp
 ----------------------------------------
 Symbolic Z-matrix:
 Charge =  1 Multiplicity = 1

 SCF Done:  E(RB3LYP) =  -1515.35959458     A.U. after   21 cycles
 SCF Done:  E(RB3LYP) =  -1515.37577263     A.U. after   14 cycles
 SCF Done:  E(RB3LYP) =  -1515.37710347     A.U. after   12 cycles
 SCF Done:  E(RB3LYP) =  -1515.37737392     A.U. after   13 cycles
 SCF Done:  E(RB3LYP) =  -1515.35957556     A.U. after   16 cycles
 SCF Done:  E(RB3LYP) =  -1515.37757862     A.U. after   17 cycles
 SCF Done:  E(RB3LYP) =  -1515.37776204     A.U. after   12 cycles
 SCF Done:  E(RB3LYP) =  -1515.37605162     A.U. after   14 cycles
 SCF Done:  E(RB3LYP) =  -1515.37778490     A.U. after   14 cycles
 SCF Done:  E(RB3LYP) =  -1515.37792424     A.U. after   11 cycles
 SCF Done:  E(RB3LYP) =  -1515.38005286     A.U. after   10 cycles
 SCF Done:  E(RB3LYP) =  -1515.38005454     A.U. after    9 cycles
 SCF Done:  E(RB3LYP) =  -1515.38005563     A.U. after    9 cycles
 SCF Done:  E(RB3LYP) =  -1515.38005649     A.U. after    9 cycles
 SCF Done:  E(RB3LYP) =  -1515.38005701     A.U. after    9 cycles
 SCF Done:  E(RB3LYP) =  -1515.38005756     A.U. after    9 cycles
 SCF Done:  E(RB3LYP) =  -1515.38005829     A.U. after    9 cycles
 SCF Done:  E(RB3LYP) =  -1515.38005883     A.U. after    9 cycles
 SCF Done:  E(RB3LYP) =  -1515.38005906     A.U. after    8 cycles
 Optimization completed.
    -- Stationary point found.
 Normal termination of Gaussian 09 at Mon Jan 10 13:23:18 2005.

 ----------------------------------------------------------------------
 #N Geom=AllCheck Guess=TCheck SCRF=Check GenChk RB3LYP/6-31G(d,p) Freq
 ----------------------------------------------------------------------

 x2-4-NO2-Ph-N2-BF4-v1-RB3LYP-6-311++G_dp
 ----------------------------------------
 Redundant internal coordinates taken from checkpoint file:
 Ph-N2-OTf-N2-Ph.chk
 Charge =  1 Multiplicity = 1

                         Standard orientation:
 ---------------------------------------------------------------------
 Center     Atomic      Atomic             Coordinates (Angstroms)
 Number     Number       Type             X           Y           Z
 ---------------------------------------------------------------------
      1          6           0       -3.122978    0.153311   -0.358206
      2          6           0       -3.784820   -1.074262   -0.184963
      3          6           0       -5.165201   -1.209663    0.053837
      4          6           0       -5.918239   -0.047930    0.126382
      5          6           0       -5.272523    1.176620   -0.047845
      6          6           0       -3.905889    1.299256   -0.288774
      7          1           0       -2.051174    0.191986   -0.523349
      8          1           0       -5.617910   -2.186474    0.179893
      9          1           0       -6.984702   -0.071694    0.312350
     10          1           0       -3.471660    2.283627   -0.411594
     11          7           0       -3.049333   -2.245943   -0.276375
     12          7           0       -2.492280   -3.202814   -0.377269
     13          1           0        2.050661    0.194437   -0.520488
     14          6           0        3.122622    0.154719   -0.356765
     15          6           0        3.783833   -1.073611   -0.186503
     16          6           0        3.906398    1.300002   -0.286282
     17          6           0        5.164432   -1.210315    0.050412
     18          6           0        5.273237    1.176047   -0.047192
     19          1           0        3.472692    2.284885   -0.406839
     20          6           0        5.918338   -0.049219    0.124132
     21          1           0        5.616663   -2.187642    0.174176
     22          1           0        6.985005   -0.074031    0.308796
     23          7           0        3.047811   -2.244854   -0.279294
     24          7           0        2.491239   -3.201879   -0.381414
     25          7           0        6.093256    2.417720    0.030458
     26          8           0        5.502323    3.478290   -0.127033
     27          8           0        7.290330    2.273063    0.244323
     28          7           0       -6.091640    2.418952    0.028616
     29          8           0       -5.500214    3.478885   -0.131320
     30          8           0       -7.288576    2.275445    0.244025
     31          9           0        1.156546   -1.234396    1.196965
     32          9           0       -0.001403   -2.526846   -0.305033
     33          9           0       -0.000050   -0.237355   -0.517470
     34          9           0       -1.156968   -1.233112    1.197624
     35          5           0       -0.000446   -1.310635    0.419171
 ---------------------------------------------------------------------

 SCF Done:  E(RB3LYP) =  -1515.38005906     A.U. after    1 cycles

 The electronic state is 1-A.
 Alpha  occ. eigenvalues --  -24.75033 -24.74816 -24.74387 -24.74383 -19.30328
 Alpha  occ. eigenvalues --  -19.30326 -19.30324 -19.30323 -14.69471 -14.69470
 Alpha  occ. eigenvalues --  -14.69199 -14.69194 -14.66053 -14.66050 -10.44735
 Alpha  occ. eigenvalues --  -10.44732 -10.40724 -10.40723 -10.39022 -10.39019
 Alpha  occ. eigenvalues --  -10.38000 -10.37998 -10.36919 -10.36918 -10.36602
 Alpha  occ. eigenvalues --  -10.36600  -6.94190  -1.34813  -1.34811  -1.34183
 Alpha  occ. eigenvalues --   -1.34164  -1.28401  -1.23049  -1.22929  -1.22794
 Alpha  occ. eigenvalues --   -1.17796  -1.17795  -1.07856  -1.07854  -1.00947
 Alpha  occ. eigenvalues --   -1.00945  -0.93443  -0.93439  -0.90952  -0.90949
 Alpha  occ. eigenvalues --   -0.80097  -0.80092  -0.79623  -0.79614  -0.73340
 Alpha  occ. eigenvalues --   -0.73313  -0.69347  -0.69287  -0.69234  -0.69162
 Alpha  occ. eigenvalues --   -0.68128  -0.68115  -0.65899  -0.65874  -0.65394
 Alpha  occ. eigenvalues --   -0.65393  -0.63816  -0.63542  -0.63364  -0.61892
 Alpha  occ. eigenvalues --   -0.61737  -0.61276  -0.61031  -0.60351  -0.60041
 Alpha  occ. eigenvalues --   -0.58201  -0.58060  -0.57975  -0.57673  -0.57641
 Alpha  occ. eigenvalues --   -0.54541  -0.54469  -0.52816  -0.52642  -0.49285
 Alpha  occ. eigenvalues --   -0.49273  -0.47432  -0.47249  -0.47115  -0.44959
 Alpha  occ. eigenvalues --   -0.44444  -0.44395  -0.44165  -0.44120  -0.43312
 Alpha  occ. eigenvalues --   -0.43204  -0.42549  -0.42535  -0.42370  -0.42326
 Alpha  occ. eigenvalues --   -0.41223  -0.41220
 Alpha virt. eigenvalues --   -0.26596  -0.26593  -0.23716  -0.23364  -0.19267
 Alpha virt. eigenvalues --   -0.19264  -0.17573  -0.17554  -0.12229  -0.12224
 Alpha virt. eigenvalues --   -0.06589  -0.06311  -0.00538  -0.00533  -0.00191

 Mulliken atomic charges:
              1
     1  C   -0.008561
     2  C    0.245830
     3  C   -0.045807
     4  C   -0.088125
     5  C    0.278430
     6  C   -0.104481
     7  H    0.193307
     8  H    0.176912
     9  H    0.194410
    10  H    0.192559
    11  N    0.141507
    12  N   -0.006739
    13  H    0.193363
    14  C   -0.008642
    15  C    0.245772
    16  C   -0.104436
    17  C   -0.045764
    18  C    0.278424
    19  H    0.192575
    20  C   -0.088129
    21  H    0.176913
    22  H    0.194419
    23  N    0.141524
    24  N   -0.006720
    25  N    0.412212
    26  O   -0.353026
    27  O   -0.353225
    28  N    0.412199
    29  O   -0.353038
    30  O   -0.353229
    31  F   -0.364069
    32  F   -0.359635
    33  F   -0.355301
    34  F   -0.364108
    35  B    0.692679
 Sum of Mulliken atomic charges =   1.00000

 Dipole moment (field-independent basis, Debye):
    X=             -0.0006    Y=             -8.5299    Z=             -2.9463  Tot=              9.0244
 Quadrupole moment (field-independent basis, Debye-Ang):
   XX=            -37.6776   YY=           -132.8301   ZZ=           -144.8111
   XY=              0.0102   XZ=             -0.0473   YZ=              2.3815

  Exact polarizability: 267.055  -0.010 257.436  -0.038  -0.010  77.276
 Approx polarizability: 431.299  -0.039 487.538  -0.114  -3.598 124.828

                     1                      2                      3
                     A                      A                      A
 Frequencies --    12.9501                15.4195                23.5424
 Red. masses --    11.1504                11.7843                 7.3951
 Frc consts  --     0.0011                 0.0017                 0.0024
 IR Inten    --     0.3490                 0.2156                 1.4086

                     4                      5                      6
                     A                      A                      A
 Frequencies --    32.3465                45.5215                48.6105
 Red. masses --     8.6169                15.0637                10.6938
 Frc consts  --     0.0053                 0.0184                 0.0149
 IR Inten    --     0.0109                 1.3164                 0.2994

                     7                      8                      9
                     A                      A                      A
 Frequencies --    49.7694                54.3531                67.0351
 Red. masses --    12.0841                10.4671                 5.8105
 Frc consts  --     0.0176                 0.0182                 0.0154
 IR Inten    --     6.6413                 4.0680                 1.9048

                    10                     11                     12
                     A                      A                      A
 Frequencies --    74.3569                86.0318               107.6154
 Red. masses --     8.6432                14.0348                 7.5436
 Frc consts  --     0.0282                 0.0612                 0.0515
 IR Inten    --     4.6551                 0.0115                 9.7010

                    13                     14                     15
                     A                      A                      A
 Frequencies --   110.6593               116.3869               117.8034
 Red. masses --    10.2944                10.4139                15.8957
 Frc consts  --     0.0743                 0.0831                 0.1300
 IR Inten    --     0.2115                 5.0964                42.0301

                    16                     17                     18
                     A                      A                      A
 Frequencies --   144.3320               186.9399               190.5685
 Red. masses --    11.7935                13.1383                13.9265
 Frc consts  --     0.1447                 0.2705                 0.2980
 IR Inten    --    33.9462                 0.9898                30.9891

                    19                     20                     21
                     A                      A                      A
 Frequencies --   223.5566               223.9312               269.3135
 Red. masses --     8.1330                 8.1464                 7.2137
 Frc consts  --     0.2395                 0.2407                 0.3083
 IR Inten    --     0.3565                 0.9065                 0.1457

                    22                     23                     24
                     A                      A                      A
 Frequencies --   269.6512               331.8330               332.5350
 Red. masses --     7.2350                13.4277                13.3835
 Frc consts  --     0.3100                 0.8711                 0.8720
 IR Inten    --     7.3408                11.2028                11.3570

                    25                     26                     27
                     A                      A                      A
 Frequencies --   354.0945               365.4595               410.1777
 Red. masses --    18.8188                18.6834                 3.1030
 Frc consts  --     1.3902                 1.4702                 0.3076
 IR Inten    --     0.2393                 0.0096                 1.9007

                    28                     29                     30
                     A                      A                      A
 Frequencies --   410.3343               435.1607               435.2765
 Red. masses --     3.1004                 5.3128                 5.3204
 Frc consts  --     0.3076                 0.5928                 0.5939
 IR Inten    --     0.0461                 0.0503                 0.1145

                    31                     32                     33
                     A                      A                      A
 Frequencies --   503.2036               503.2248               514.8541
 Red. masses --    11.0218                11.0293                18.0464
 Frc consts  --     1.6443                 1.6456                 2.8184
 IR Inten    --     0.5162                 0.3258                 4.7609

                    34                     35                     36
                     A                      A                      A
 Frequencies --   516.7166               529.3894               547.4558
 Red. masses --    17.5503                17.7566                 5.5999
 Frc consts  --     2.7608                 2.9320                 0.9888
 IR Inten    --     1.4248                35.5542                 5.2402

                    37                     38                     39
                     A                      A                      A
 Frequencies --   548.0374               558.6889               558.7032
 Red. masses --     5.6587                 6.3091                 6.2985
 Frc consts  --     1.0014                 1.1603                 1.1584
 IR Inten    --    12.8290                 0.6502                 4.7594

                    40                     41                     42
                     A                      A                      A
 Frequencies --   574.4865               575.0233               643.9864
 Red. masses --     8.0961                 8.1080                 7.4569
 Frc consts  --     1.5743                 1.5796                 1.8221
 IR Inten    --     1.2735                 0.5452                 6.4439

                    43                     44                     45
                     A                      A                      A
 Frequencies --   644.8073               663.9049               664.1575
 Red. masses --     7.4605                 4.7778                 4.7908
 Frc consts  --     1.8276                 1.2408                 1.2451
 IR Inten    --     0.2534                 4.0417                25.0676

                    46                     47                     48
                     A                      A                      A
 Frequencies --   746.7981               746.8866               766.6909
 Red. masses --     4.1714                 4.1775                18.7553
 Frc consts  --     1.3707                 1.3730                 6.4955
 IR Inten    --     1.0517                36.1018                 2.2946

                    49                     50                     51
                     A                      A                      A
 Frequencies --   775.7999               776.0209               847.3319
 Red. masses --     7.3986                 7.3909                 1.2951
 Frc consts  --     2.6236                 2.6224                 0.5479
 IR Inten    --    23.2109                30.3720                 0.2079

                    52                     53                     54
                     A                      A                      A
 Frequencies --   847.5366               865.8792               865.9200
 Red. masses --     1.2980                10.2649                10.2408
 Frc consts  --     0.5493                 4.5344                 4.5242
 IR Inten    --    10.0721                60.1456                28.0611

                    55                     56                     57
                     A                      A                      A
 Frequencies --   898.2908               899.1276               995.3124
 Red. masses --     1.5451                 1.5399                 1.3211
 Frc consts  --     0.7346                 0.7335                 0.7711
 IR Inten    --    10.1177                62.3253                 0.3998

                    58                     59                     60
                     A                      A                      A
 Frequencies --   995.3274              1018.8823              1019.5131
 Red. masses --     1.3211                 1.4488                 1.3022
 Frc consts  --     0.7711                 0.8861                 0.7975
 IR Inten    --     0.9720                 8.7303                 8.9553

                    61                     62                     63
                     A                      A                      A
 Frequencies --  1023.0778              1025.2794              1052.8615
 Red. masses --     2.6785                 2.9735                 7.4251
 Frc consts  --     1.6518                 1.8416                 4.8495
 IR Inten    --     4.9797                 3.2981               169.4898

                    64                     65                     66
                     A                      A                      A
 Frequencies --  1104.4692              1114.4044              1116.4879
 Red. masses --     9.3656                 3.0540                 3.2705
 Frc consts  --     6.7312                 2.2347                 2.4020
 IR Inten    --   218.0528                48.1735                52.6132

                    67                     68                     69
                     A                      A                      A
 Frequencies --  1130.4731              1132.1328              1141.2175
 Red. masses --     2.8808                 2.7708                 1.5798
 Frc consts  --     2.1691                 2.0924                 1.2122
 IR Inten    --    63.9611                83.2873                87.4536

                    70                     71                     72
                     A                      A                      A
 Frequencies --  1144.6399              1170.9415              1213.5736
 Red. masses --     1.5745                 7.2481                 1.3311
 Frc consts  --     1.2154                 5.8553                 1.1550
 IR Inten    --    43.0440               582.7328                 2.0729

                    73                     74                     75
                     A                      A                      A
 Frequencies --  1214.1470              1333.1835              1333.8393
 Red. masses --     1.3764                 1.3395                 1.3367
 Frc consts  --     1.1955                 1.4027                 1.4012
 IR Inten    --    10.1584                13.5909                 0.9012

                    76                     77                     78
                     A                      A                      A
 Frequencies --  1380.7389              1381.1207              1389.2453
 Red. masses --     8.6893                 8.8030                14.5027
 Frc consts  --     9.7601                 9.8934                16.4914
 IR Inten    --    69.4649                33.9029               112.8960

                    79                     80                     81
                     A                      A                      A
 Frequencies --  1389.7651              1452.9635              1453.2717
 Red. masses --    14.5094                 3.1505                 3.1466
 Frc consts  --    16.5114                 3.9186                 3.9154
 IR Inten    --   243.3118                22.4597                 7.9041

                    82                     83                     84
                     A                      A                      A
 Frequencies --  1504.3831              1504.9384              1617.5131
 Red. masses --     1.9788                 1.9763                 8.0860
 Frc consts  --     2.6386                 2.6372                12.4646
 IR Inten    --     2.9120                 0.5027                58.3014

                    85                     86                     87
                     A                      A                      A
 Frequencies --  1617.9207              1628.6085              1628.9535
 Red. masses --     8.0278                 5.5958                 5.6124
 Frc consts  --    12.3811                 8.7447                 8.7744
 IR Inten    --    51.7819                79.5606                73.7642

                    88                     89                     90
                     A                      A                      A
 Frequencies --  1682.7992              1683.1263              2380.0174
 Red. masses --    12.3284                12.3152                13.9510
 Frc consts  --    20.5693                20.5554                46.5603
 IR Inten    --   180.8148                98.1513                61.4371

                    91                     92                     93
                     A                      A                      A
 Frequencies --  2380.2902              3209.5361              3217.7493
 Red. masses --    13.9500                 1.0978                 1.0967
 Frc consts  --    46.5676                 6.6628                 6.6903
 IR Inten    --   221.5839               350.8575                 1.8007

                    94                     95                     96
                     A                      A                      A
 Frequencies --  3231.3553              3231.3697              3250.6370
 Red. masses --     1.0930                 1.0930                 1.0932
 Frc consts  --     6.7241                 6.7241                 6.8062
 IR Inten    --     1.3189                 6.5872                14.0545

                    97                     98                     99
                     A                      A                      A
 Frequencies --  3250.7735              3252.8841              3252.9141
 Red. masses --     1.0933                 1.0948                 1.0948
 Frc consts  --     6.8073                 6.8255                 6.8256
 IR Inten    --    27.5257                29.4085                 7.1933

 - Thermochemistry -
 -------------------
 Temperature   298.150 Kelvin.  Pressure   1.00000 Atm.
 Atom     1 has atomic number  6 and mass  12.00000

 Molecular mass:   387.06362 amu.
 Principal axes and moments of inertia in atomic units:
                           1         2         3
     Eigenvalues --  5644.40046********************
           X            1.00000   0.00000   0.00000
           Y            0.00000   1.00000  -0.00022
           Z            0.00000   0.00022   1.00000
 This molecule is an asymmetric top.
 Rotational symmetry number  1.
 Warning -- assumption of classical behavior for rotation
           may cause significant error
 Rotational temperatures (Kelvin)      0.01535     0.00321     0.00270
 Rotational constants (GHZ):           0.31974     0.06686     0.05628
 Zero-point vibrational energy     576487.2 (Joules/Mol)
                                  137.78374 (Kcal/Mol)
 Warning -- explicit consideration of  41 degrees of freedom as
           vibrations may cause significant error
 Vibrational temperatures:     18.63    22.19    33.87    46.54    65.50
          (Kelvin)             69.94    71.61    78.20    96.45   106.98
                              123.78   154.83   159.21   167.45   169.49
                              207.66   268.96   274.19   321.65   322.19
                              387.48   387.97   477.43   478.44   509.46
                              525.81   590.15   590.38   626.10   626.27
                              724.00   724.03   740.76   743.44   761.67
                              787.67   788.50   803.83   803.85   826.56
                              827.33   926.55   927.73   955.21   955.57
                             1074.47  1074.60  1103.10  1116.20  1116.52
                             1219.12  1219.41  1245.81  1245.86  1292.44
                             1293.64  1432.03  1432.05  1465.94  1466.85
                             1471.98  1475.15  1514.83  1589.08  1603.38
                             1606.37  1626.50  1628.88  1641.96  1646.88
                             1684.72  1746.06  1746.88  1918.15  1919.09
                             1986.57  1987.12  1998.81  1999.56  2090.49
                             2090.93  2164.47  2165.27  2327.24  2327.82
                             2343.20  2343.70  2421.17  2421.64  3424.31
                             3424.70  4617.80  4629.62  4649.19  4649.21
                             4676.94  4677.13  4680.17  4680.21

 Zero-point correction=                           0.219572 (Hartree/Particle)
 Thermal correction to Energy=                    0.244970
 Thermal correction to Enthalpy=                  0.245914
 Thermal correction to Gibbs Free Energy=         0.157897
 Sum of electronic and zero-point Energies=          -1515.160487
 Sum of electronic and thermal Energies=             -1515.135089
 Sum of electronic and thermal Enthalpies=           -1515.134145
 Sum of electronic and thermal Free Energies=        -1515.222162

                     E (Thermal)             CV                S
                      KCal/Mol        Cal/Mol-Kelvin    Cal/Mol-Kelvin
 Total                  153.721             89.714            185.247
 Electronic               0.000              0.000              0.000
 Translational            0.889              2.981             43.752
 Rotational               0.889              2.981             36.833
 Vibrational            151.944             83.752            104.662
 Vibration     1          0.593              1.987              7.497
 Vibration     2          0.593              1.986              7.151
 Vibration     3          0.593              1.985              6.310
 Vibration     4          0.594              1.983              5.680
 Vibration     5          0.595              1.979              5.003
 Vibration     6          0.595              1.978              4.873
 Vibration     7          0.595              1.978              4.827
 Vibration     8          0.596              1.976              4.652
 Vibration     9          0.598              1.970              4.239
 Vibration    10          0.599              1.966              4.035
 Vibration    11          0.601              1.959              3.748
 Vibration    12          0.606              1.943              3.311
 Vibration    13          0.606              1.941              3.257
 Vibration    14          0.608              1.936              3.160
 Vibration    15          0.608              1.935              3.136
 Vibration    16          0.616              1.909              2.746
 Vibration    17          0.632              1.858              2.258
 Vibration    18          0.634              1.853              2.222
 Vibration    19          0.649              1.805              1.930
 Vibration    20          0.649              1.805              1.927
 Vibration    21          0.674              1.730              1.601
 Vibration    22          0.674              1.729              1.598
 Vibration    23          0.714              1.612              1.251
 Vibration    24          0.714              1.611              1.248
 Vibration    25          0.730              1.567              1.148
 Vibration    26          0.739              1.543              1.099
 Vibration    27          0.774              1.448              0.926
 Vibration    28          0.775              1.448              0.925
 Vibration    29          0.796              1.394              0.842
 Vibration    30          0.796              1.393              0.842
 Vibration    31          0.859              1.243              0.650
 Vibration    32          0.859              1.243              0.650
 Vibration    33          0.870              1.217              0.622
 Vibration    34          0.872              1.213              0.618
 Vibration    35          0.884              1.185              0.589
 Vibration    36          0.903              1.145              0.549
 Vibration    37          0.903              1.144              0.548
 Vibration    38          0.914              1.121              0.526
 Vibration    39          0.914              1.121              0.526
 Vibration    40          0.931              1.086              0.496
 Vibration    41          0.931              1.085              0.495

 Normal termination of Gaussian 09 at Mon Jan 10 13:46:57 2005.
