 Gaussian 09, Revision B.01,
 Gaussian 09:  EM64L-G09RevB.01 12-Aug-2010

 ------------------------------------------------
 #p Temperature=298.15 opt freq rb3lyp/6-31G(d,p)
 ------------------------------------------------

 ------------------------------------
 x2-4-Br-Ph-N2-OTf-v2-RB3LYP-6-31G_dp
 ------------------------------------
 Symbolic Z-matrix:
 Charge =  1 Multiplicity = 1

 SCF Done:  E(RB3LYP) =  -6785.59659836     A.U. after   19 cycles
 SCF Done:  E(RB3LYP) =  -6785.59051686     A.U. after   16 cycles
 SCF Done:  E(RB3LYP) =  -6785.59660643     A.U. after   16 cycles
 SCF Done:  E(RB3LYP) =  -6785.59654096     A.U. after   13 cycles
 SCF Done:  E(RB3LYP) =  -6785.59664412     A.U. after   15 cycles
 SCF Done:  E(RB3LYP) =  -6785.59677288     A.U. after   13 cycles
 SCF Done:  E(RB3LYP) =  -6785.59680937     A.U. after   11 cycles
 SCF Done:  E(RB3LYP) =  -6785.59688707     A.U. after   13 cycles
 SCF Done:  E(RB3LYP) =  -6785.59696709     A.U. after   13 cycles
 SCF Done:  E(RB3LYP) =  -6785.59701189     A.U. after   10 cycles
 SCF Done:  E(RB3LYP) =  -6785.59725873     A.U. after    9 cycles
 SCF Done:  E(RB3LYP) =  -6785.59725943     A.U. after    9 cycles
 SCF Done:  E(RB3LYP) =  -6785.59726004     A.U. after    8 cycles
 SCF Done:  E(RB3LYP) =  -6785.59726035     A.U. after    8 cycles
 SCF Done:  E(RB3LYP) =  -6785.59726058     A.U. after    8 cycles
 SCF Done:  E(RB3LYP) =  -6785.59726073     A.U. after    8 cycles
 SCF Done:  E(RB3LYP) =  -6785.59726085     A.U. after    8 cycles
 SCF Done:  E(RB3LYP) =  -6785.59726095     A.U. after    8 cycles
 SCF Done:  E(RB3LYP) =  -6785.59726094     A.U. after    7 cycles
 Optimization completed.
    -- Stationary point found.
 Normal termination of Gaussian 09 at Thu Feb 24 21:22:35 2005.

 ----------------------------------------------------------------------
 #P Geom=AllCheck Guess=TCheck SCRF=Check GenChk RB3LYP/6-31G(d,p) Freq
 ----------------------------------------------------------------------

 x2-4-Br-Ph-N2-OTf-v2-RB3LYP-6-31G_dp
 ------------------------------------
 Redundant internal coordinates taken from checkpoint file:
 /home/ubuntu/g09/Gau-12758.chk
 Charge =  1 Multiplicity = 1

                         Standard orientation:
 ---------------------------------------------------------------------
 Center     Atomic      Atomic             Coordinates (Angstroms)
 Number     Number       Type             X           Y           Z
 ---------------------------------------------------------------------
      1          6           0       -3.703281   -0.212411   -0.321735
      2          6           0       -3.612577   -0.306874    1.078832
      3          6           0       -4.656866   -0.793579    1.893596
      4          6           0       -5.824473   -1.200066    1.275358
      5          6           0       -5.935089   -1.116086   -0.123124
      6          6           0       -4.886216   -0.626524   -0.913839
      7          1           0       -2.869186    0.194090   -0.884739
      8          1           0       -4.542986   -0.846745    2.970526
      9          1           0       -6.650177   -1.580404    1.864297
     10          1           0       -5.000653   -0.566818   -1.989428
     11          7           0       -2.455017    0.081247    1.719874
     12          7           0       -1.554523    0.355160    2.321370
     13         16           0        0.144522    1.529101   -0.244622
     14          8           0        0.560591    0.588143    0.838808
     15          8           0        1.107561    1.598055   -1.365586
     16          8           0       -1.287669    1.421693   -0.603981
     17          6           0        0.270580    3.201721    0.558381
     18          9           0        1.559929    3.452410    0.869234
     19          9           0       -0.450286    3.230976    1.687575
     20          9           0       -0.160340    4.161090   -0.259045
     21          1           0        2.548163    0.187369    0.196215
     22          6           0        3.575096   -0.037424   -0.087031
     23          6           0        4.358213    0.884674   -0.808830
     24          6           0        4.171333   -1.243991    0.244685
     25          6           0        5.691455    0.642125   -1.200764
     26          6           0        5.494148   -1.509130   -0.137048
     27          1           0        3.608380   -1.983974    0.800716
     28          6           0        6.254599   -0.572336   -0.857849
     29          1           0        6.252195    1.386393   -1.755027
     30          1           0        7.274694   -0.801211   -1.141200
     31          7           0        3.813567    2.100990   -1.145276
     32          7           0        3.371519    3.087696   -1.412480
     33         35           0       -7.530910   -1.672224   -0.947411
     34         35           0        6.275747   -3.155032    0.325427
 ---------------------------------------------------------------------

 SCF Done:  E(RB3LYP) =  -6785.59726095     A.U. after    1 cycles

 The electronic state is 1-A.
 Alpha  occ. eigenvalues -- -483.03867-483.03469 -89.19189 -62.00022 -61.99624
 Alpha  occ. eigenvalues --  -56.52177 -56.51779 -56.51746 -56.51725 -56.51348
 Alpha  occ. eigenvalues --  -56.51328 -24.82011 -24.81829 -24.81523 -19.22032
 Alpha  occ. eigenvalues --  -19.21869 -19.21752 -14.67054 -14.66078 -14.63629
 Alpha  occ. eigenvalues --  -14.62876 -10.52112 -10.42427 -10.42007 -10.40111
 Alpha  occ. eigenvalues --  -10.39710 -10.37256 -10.36870 -10.35990 -10.35564
 Alpha  occ. eigenvalues --  -10.35180 -10.34844 -10.34714 -10.34369  -8.71175
 Alpha  occ. eigenvalues --   -8.70777  -8.21466  -6.66612  -6.66216  -6.65329
 Alpha  occ. eigenvalues --   -6.65186  -6.64930  -6.64789  -6.17916  -6.17908
 Alpha  occ. eigenvalues --   -6.17869  -2.78181  -2.77839  -2.77785  -2.77728
 Alpha  occ. eigenvalues --   -2.77440  -2.77333  -2.76702  -2.76699  -2.76303
 Alpha  occ. eigenvalues --   -2.76301  -1.39613  -1.31871  -1.30977  -1.30891
 Alpha  occ. eigenvalues --   -1.30859  -1.20078  -1.07053  -1.06439  -1.05952
 Alpha  occ. eigenvalues --   -1.05322  -0.99392  -0.98878  -0.91758  -0.91441
 Alpha  occ. eigenvalues --   -0.91332  -0.91030  -0.81916  -0.81533  -0.81039
 Alpha  occ. eigenvalues --   -0.78139  -0.77781  -0.72333  -0.72053  -0.71749
 Alpha  occ. eigenvalues --   -0.67505  -0.67283  -0.67240  -0.67004  -0.66437
 Alpha  occ. eigenvalues --   -0.66381  -0.64528  -0.64048  -0.62410  -0.62157
 Alpha  occ. eigenvalues --   -0.61870  -0.60401  -0.59940  -0.58981  -0.58627
 Alpha  occ. eigenvalues --   -0.58322  -0.58178  -0.55135  -0.54986  -0.53927
 Alpha  occ. eigenvalues --   -0.53683  -0.53437  -0.53101  -0.52690  -0.51367
 Alpha  occ. eigenvalues --   -0.51085  -0.50995  -0.50930  -0.50670  -0.50229
 Alpha  occ. eigenvalues --   -0.48923  -0.45862  -0.45464  -0.42423  -0.42138
 Alpha  occ. eigenvalues --   -0.41374  -0.41064  -0.40801  -0.40430  -0.39138
 Alpha  occ. eigenvalues --   -0.38812  -0.38499  -0.38181  -0.37850  -0.35178
 Alpha virt. eigenvalues --   -0.23946  -0.23436  -0.21795  -0.20885  -0.15836
 Alpha virt. eigenvalues --   -0.15523  -0.12718  -0.12329  -0.11330  -0.10974
 Alpha virt. eigenvalues --   -0.03109  -0.02864   0.00257   0.00555   0.00786

 Mulliken atomic charges:
              1
     1  C   -0.012824
     2  C    0.216006
     3  C   -0.028207
     4  C   -0.090931
     5  C    0.075127
     6  C   -0.097533
     7  H    0.215521
     8  H    0.164562
     9  H    0.164484
    10  H    0.166899
    11  N    0.132081
    12  N   -0.034501
    13  S    1.176446
    14  O   -0.616198
    15  O   -0.603004
    16  O   -0.592050
    17  C    0.575694
    18  F   -0.263441
    19  F   -0.244316
    20  F   -0.225003
    21  H    0.219764
    22  C    0.010346
    23  C    0.217328
    24  C   -0.110270
    25  C   -0.029113
    26  C    0.077605
    27  H    0.163908
    28  C   -0.090982
    29  H    0.168358
    30  H    0.166207
    31  N    0.133798
    32  N   -0.021853
    33  Br   0.007571
    34  Br   0.008521
 Sum of Mulliken atomic charges =   1.00000

 Dipole moment (field-independent basis, Debye):
    X=              2.3973    Y=             -2.7829    Z=              1.7514  Tot=              4.0693
 Quadrupole moment (field-independent basis, Debye-Ang):
   XX=             -8.0455   YY=           -159.1914   ZZ=           -156.6344
   XY=             18.9348   XZ=            -27.7684   YZ=             -6.3680

  Exact polarizability: 354.129   5.850 235.887  21.430 -26.176 179.363
 Approx polarizability: 517.882  -3.248 418.855  62.760 -58.506 335.232

                     1                      2                      3
                     A                      A                      A
 Frequencies --     4.8096                 9.6566                19.4924
 Red. masses --    22.7902                13.1284                 6.9855
 Frc consts  --     0.0003                 0.0007                 0.0016
 IR Inten    --     0.1286                 1.1900                 1.8434

                     4                      5                      6
                     A                      A                      A
 Frequencies --    21.9759                28.1530                30.1073
 Red. masses --     7.0429                 6.2594                 9.5243
 Frc consts  --     0.0020                 0.0029                 0.0051
 IR Inten    --     2.3328                 1.9611                 1.2624

                     7                      8                      9
                     A                      A                      A
 Frequencies --    39.8977                49.3770                53.6372
 Red. masses --    10.5308                14.7186                10.5415
 Frc consts  --     0.0099                 0.0211                 0.0179
 IR Inten    --     0.7169                 1.1456                 2.1023

                    10                     11                     12
                     A                      A                      A
 Frequencies --    59.3540                78.7906                82.3934
 Red. masses --    11.7145                 9.3187                10.8456
 Frc consts  --     0.0243                 0.0341                 0.0434
 IR Inten    --     5.1800                 5.6178                 2.5032

                    13                     14                     15
                     A                      A                      A
 Frequencies --    83.7334                98.1336               120.7238
 Red. masses --    10.4416                14.8651                11.2685
 Frc consts  --     0.0431                 0.0843                 0.0968
 IR Inten    --     0.8201                13.9750                50.7712

                    16                     17                     18
                     A                      A                      A
 Frequencies --   147.9841               197.6680               202.2906
 Red. masses --    14.0525                14.1277                13.9331
 Frc consts  --     0.1813                 0.3252                 0.3359
 IR Inten    --    13.9686                 2.5606                12.6838

                    19                     20                     21
                     A                      A                      A
 Frequencies --   212.1889               227.7819               232.2543
 Red. masses --    16.8161                 7.4343                 7.4480
 Frc consts  --     0.4461                 0.2273                 0.2367
 IR Inten    --    10.4895                 0.1809                 0.6930

                    22                     23                     24
                     A                      A                      A
 Frequencies --   267.0436               275.6729               277.2253
 Red. masses --     5.9298                 7.1596                15.8540
 Frc consts  --     0.2491                 0.3206                 0.7179
 IR Inten    --     0.2277                15.7701                14.1160

                    25                     26                     27
                     A                      A                      A
 Frequencies --   279.1689               306.1665               333.0505
 Red. masses --    12.6766                17.5750                17.5401
 Frc consts  --     0.5821                 0.9706                 1.1463
 IR Inten    --    12.2740                 1.7366                 2.4321

                    28                     29                     30
                     A                      A                      A
 Frequencies --   343.5968               407.7436               411.4953
 Red. masses --    17.1218                 2.9701                 3.0194
 Frc consts  --     1.1910                 0.2909                 0.3012
 IR Inten    --    15.9057                 0.2932                 0.9054

                    31                     32                     33
                     A                      A                      A
 Frequencies --   458.3240               459.3874               494.0413
 Red. masses --     4.4939                 4.5434                17.2914
 Frc consts  --     0.5562                 0.5649                 2.4866
 IR Inten    --     3.1250                 2.8874                17.0106

                    34                     35                     36
                     A                      A                      A
 Frequencies --   503.8893               521.3748               532.1948
 Red. masses --    17.0965                 7.7742                 7.1876
 Frc consts  --     2.5576                 1.2451                 1.1994
 IR Inten    --    57.6055                 1.2905                 4.0706

                    37                     38                     39
                     A                      A                      A
 Frequencies --   549.3960               550.8826               554.1831
 Red. masses --     5.3359                 5.7139                 9.7091
 Frc consts  --     0.9489                 1.0216                 1.7568
 IR Inten    --    12.1556                 8.1960                11.3287

                    40                     41                     42
                     A                      A                      A
 Frequencies --   556.8147               561.8940               566.5382
 Red. masses --     8.0593                13.9073                14.4058
 Frc consts  --     1.4722                 2.5870                 2.7242
 IR Inten    --     8.3537                 8.2979                17.1020

                    43                     44                     45
                     A                      A                      A
 Frequencies --   619.6332               643.8080               644.7979
 Red. masses --    19.8732                 7.5043                 7.4783
 Frc consts  --     4.4956                 1.8326                 1.8319
 IR Inten    --   144.5180                 2.6884                 0.8004

                    46                     47                     48
                     A                      A                      A
 Frequencies --   708.5206               709.7367               756.9557
 Red. masses --     4.0623                 4.0855                18.3197
 Frc consts  --     1.2015                 1.2125                 6.1846
 IR Inten    --     0.0196                 0.1981                 1.4160

                    49                     50                     51
                     A                      A                      A
 Frequencies --   788.5888               789.5675               835.6151
 Red. masses --     6.7810                 6.7369                 1.2943
 Frc consts  --     2.4845                 2.4745                 0.5325
 IR Inten    --    34.4692                20.0245                12.4666

                    52                     53                     54
                     A                      A                      A
 Frequencies --   836.2444               866.7840               877.1629
 Red. masses --     1.3120                 1.3812                 1.3614
 Frc consts  --     0.5406                 0.6114                 0.6172
 IR Inten    --    15.3809                30.5363                27.0711

                    55                     56                     57
                     A                      A                      A
 Frequencies --   991.3870               992.7151               993.1694
 Red. masses --     6.0121                 1.4738                 1.3683
 Frc consts  --     3.4815                 0.8557                 0.7952
 IR Inten    --   168.7283                20.6356                 5.4741

                    58                     59                     60
                     A                      A                      A
 Frequencies --  1012.1886              1021.5163              1025.0184
 Red. masses --     1.4435                 3.0828                 3.8093
 Frc consts  --     0.8713                 1.8953                 2.3581
 IR Inten    --     1.3381                12.4025                13.1097

                    61                     62                     63
                     A                      A                      A
 Frequencies --  1029.8843              1088.1798              1088.4860
 Red. masses --     1.3309                 3.4929                 3.4719
 Frc consts  --     0.8317                 2.4369                 2.4236
 IR Inten    --    10.9195               143.1328                82.0662

                    64                     65                     66
                     A                      A                      A
 Frequencies --  1142.0902              1146.3798              1147.3890
 Red. masses --     2.3731                 1.6000                 2.0076
 Frc consts  --     1.8237                 1.2389                 1.5572
 IR Inten    --   269.4628                30.1839                72.3739

                    67                     68                     69
                     A                      A                      A
 Frequencies --  1160.1376              1186.5310              1196.9418
 Red. masses --     1.8349                12.9510                13.1702
 Frc consts  --     1.4551                10.7426                11.1170
 IR Inten    --    62.0335               116.0611               103.2149

                    70                     71                     72
                     A                      A                      A
 Frequencies --  1218.1033              1225.7538              1226.4610
 Red. masses --     1.6425                 1.4045                 4.0312
 Frc consts  --     1.4359                 1.2433                 3.5727
 IR Inten    --    50.3299                27.8561                69.0499

                    73                     74                     75
                     A                      A                      A
 Frequencies --  1254.0200              1258.1381              1333.3396
 Red. masses --     9.9394                12.4676                 1.3431
 Frc consts  --     9.2091                11.6276                 1.4068
 IR Inten    --   659.2052               311.9692                 1.7122

                    76                     77                     78
                     A                      A                      A
 Frequencies --  1336.6071              1359.5177              1361.1108
 Red. masses --     1.4087                 6.6667                 5.6761
 Frc consts  --     1.4828                 7.2599                 6.1956
 IR Inten    --     3.0390                12.1488                10.7490

                    79                     80                     81
                     A                      A                      A
 Frequencies --  1455.7962              1456.5151              1497.8147
 Red. masses --     3.0114                 3.1153                 1.9750
 Frc consts  --     3.7603                 3.8939                 2.6106
 IR Inten    --    45.7268                24.6728                16.3277

                    82                     83                     84
                     A                      A                      A
 Frequencies --  1500.8713              1583.4910              1584.3598
 Red. masses --     1.9295                 6.5064                 6.8928
 Frc consts  --     2.5608                 9.6122                10.1942
 IR Inten    --     6.0436                 6.1327                 2.9434

                    85                     86                     87
                     A                      A                      A
 Frequencies --  1613.8436              1615.6710              2328.4092
 Red. masses --     5.2837                 5.3414                13.9357
 Frc consts  --     8.1079                 8.2151                44.5140
 IR Inten    --   426.9285               296.8864               166.6543

                    88                     89                     90
                     A                      A                      A
 Frequencies --  2363.6597              3160.3142              3213.2642
 Red. masses --    13.9420                 1.0988                 1.0953
 Frc consts  --    45.8929                 6.4660                 6.6631
 IR Inten    --   358.9505               412.0316               157.0524

                    91                     92                     93
                     A                      A                      A
 Frequencies --  3225.5944              3226.1228              3237.0441
 Red. masses --     1.0912                 1.0912                 1.0932
 Frc consts  --     6.6892                 6.6914                 6.7492
 IR Inten    --     1.2705                 1.8673                 5.8525

                    94                     95                     96
                     A                      A                      A
 Frequencies --  3237.5138              3241.0424              3241.4230
 Red. masses --     1.0941                 1.0966                 1.0963
 Frc consts  --     6.7565                 6.7868                 6.7865
 IR Inten    --     9.2557                 3.4477                 2.1730

 - Thermochemistry -
 -------------------
 Temperature   298.150 Kelvin.  Pressure   1.00000 Atm.
 Atom     1 has atomic number  6 and mass  12.00000

 Molecular mass:   514.86359 amu.
 Principal axes and moments of inertia in atomic units:
                           1         2         3
     Eigenvalues --  ******************************
           X            0.99992   0.00766  -0.00986
           Y           -0.00777   0.99991  -0.01107
           Z            0.00978   0.01114   0.99989
 This molecule is an asymmetric top.
 Rotational symmetry number  1.
 Warning -- assumption of classical behavior for rotation
           may cause significant error
 Rotational temperatures (Kelvin)      0.00848     0.00196     0.00170
 Rotational constants (GHZ):           0.17665     0.04076     0.03549
 Zero-point vibrational energy     543497.7 (Joules/Mol)
                                  129.89906 (Kcal/Mol)
 Warning -- explicit consideration of  43 degrees of freedom as
           vibrations may cause significant error
 Vibrational temperatures:      6.92    13.89    28.05    31.62    40.51
          (Kelvin)             43.32    57.40    71.04    77.17    85.40
                              113.36   118.55   120.47   141.19   173.69
                              212.92   284.40   291.05   305.29   327.73
                              334.16   384.22   396.63   398.86   401.66
                              440.50   479.18   494.36   586.65   592.05
                              659.43   660.96   710.81   724.98   750.14
                              765.71   790.46   792.60   797.34   801.13
                              808.44   815.12   891.51   926.29   927.72
                             1019.40  1021.15  1089.09  1134.60  1136.01
                             1202.26  1203.17  1247.11  1262.04  1426.38
                             1428.29  1428.95  1456.31  1469.73  1474.77
                             1481.77  1565.65  1566.09  1643.21  1649.38
                             1650.83  1669.18  1707.15  1722.13  1752.58
                             1763.58  1764.60  1804.25  1810.18  1918.38
                             1923.08  1956.04  1958.33  2094.56  2095.60
                             2155.02  2159.42  2278.29  2279.54  2321.96
                             2324.59  3350.06  3400.77  4546.98  4623.16
                             4640.91  4641.67  4657.38  4658.05  4663.13
                             4663.68

 Zero-point correction=                           0.207007 (Hartree/Particle)
 Thermal correction to Energy=                    0.233445
 Thermal correction to Enthalpy=                  0.234389
 Thermal correction to Gibbs Free Energy=         0.139706
 Sum of electronic and zero-point Energies=          -6785.390254
 Sum of electronic and thermal Energies=             -6785.363816
 Sum of electronic and thermal Enthalpies=           -6785.362872
 Sum of electronic and thermal Free Energies=        -6785.457555

                     E (Thermal)             CV                S
                      KCal/Mol        Cal/Mol-Kelvin    Cal/Mol-Kelvin
 Total                  146.489             90.823            199.277
 Electronic               0.000              0.000              0.000
 Translational            0.889              2.981             44.603
 Rotational               0.889              2.981             38.373
 Vibrational            144.712             84.861            116.302
 Vibration     1          0.593              1.987              9.465
 Vibration     2          0.593              1.987              8.080
 Vibration     3          0.593              1.986              6.685
 Vibration     4          0.593              1.985              6.447
 Vibration     5          0.593              1.984              5.955
 Vibration     6          0.594              1.984              5.822
 Vibration     7          0.594              1.981              5.264
 Vibration     8          0.595              1.978              4.842
 Vibration     9          0.596              1.976              4.679
 Vibration    10          0.597              1.974              4.479
 Vibration    11          0.600              1.963              3.921
 Vibration    12          0.600              1.961              3.833
 Vibration    13          0.601              1.960              3.801
 Vibration    14          0.604              1.950              3.491
 Vibration    15          0.609              1.932              3.089
 Vibration    16          0.617              1.905              2.698
 Vibration    17          0.637              1.843              2.155
 Vibration    18          0.639              1.837              2.112
 Vibration    19          0.643              1.822              2.025
 Vibration    20          0.651              1.799              1.896
 Vibration    21          0.653              1.792              1.861
 Vibration    22          0.672              1.734              1.615
 Vibration    23          0.677              1.718              1.560
 Vibration    24          0.678              1.716              1.551
 Vibration    25          0.679              1.712              1.539
 Vibration    26          0.697              1.662              1.383
 Vibration    27          0.715              1.610              1.245
 Vibration    28          0.722              1.588              1.195
 Vibration    29          0.772              1.453              0.935
 Vibration    30          0.775              1.445              0.921
 Vibration    31          0.816              1.342              0.771
 Vibration    32          0.817              1.340              0.768
 Vibration    33          0.850              1.263              0.673
 Vibration    34          0.859              1.241              0.648
 Vibration    35          0.876              1.203              0.607
 Vibration    36          0.887              1.179              0.582
 Vibration    37          0.905              1.141              0.545
 Vibration    38          0.906              1.138              0.542
 Vibration    39          0.910              1.131              0.536
 Vibration    40          0.912              1.125              0.530
 Vibration    41          0.918              1.114              0.520
 Vibration    42          0.922              1.104              0.511
 Vibration    43          0.980              0.990              0.417

 Normal termination of Gaussian 09 at Thu Feb 24 21:48:13 2005.
