 Gaussian 09, Revision B.01,
 Gaussian 09:  EM64L-G09RevB.01 12-Aug-2010

 ----------------------------
 # opt freq rb3lyp/6-31G(d,p)
 ----------------------------

 ----------------------------------------
 x2-4-NO2-Ph-N2-BF4-v2-RB3LYP-6-311++G_dp
 ----------------------------------------
 Symbolic Z-matrix:
 Charge =  1 Multiplicity = 1

 SCF Done:  E(RB3LYP) =  -1515.35984492     A.U. after   28 cycles
 SCF Done:  E(RB3LYP) =  -1515.37585645     A.U. after   14 cycles
 SCF Done:  E(RB3LYP) =  -1515.37544683     A.U. after   15 cycles
 SCF Done:  E(RB3LYP) =  -1515.37646393     A.U. after   13 cycles
 SCF Done:  E(RB3LYP) =  -1515.37706174     A.U. after   14 cycles
 SCF Done:  E(RB3LYP) =  -1515.37808086     A.U. after   13 cycles
 SCF Done:  E(RB3LYP) =  -1515.37584681     A.U. after   15 cycles
 SCF Done:  E(RB3LYP) =  -1515.37813837     A.U. after   14 cycles
 SCF Done:  E(RB3LYP) =  -1515.37843361     A.U. after   12 cycles
 SCF Done:  E(RB3LYP) =  -1515.37559397     A.U. after   15 cycles
 SCF Done:  E(RB3LYP) =  -1515.38124943     A.U. after    9 cycles
 SCF Done:  E(RB3LYP) =  -1515.38124948     A.U. after    8 cycles
 SCF Done:  E(RB3LYP) =  -1515.38124953     A.U. after    8 cycles
 SCF Done:  E(RB3LYP) =  -1515.38124958     A.U. after    7 cycles
 SCF Done:  E(RB3LYP) =  -1515.38124965     A.U. after    7 cycles
 SCF Done:  E(RB3LYP) =  -1515.38124977     A.U. after    8 cycles
 SCF Done:  E(RB3LYP) =  -1515.38124990     A.U. after    8 cycles
 SCF Done:  E(RB3LYP) =  -1515.38124997     A.U. after    8 cycles
 SCF Done:  E(RB3LYP) =  -1515.38125003     A.U. after    7 cycles
 Optimization completed.
    -- Stationary point found.
 Normal termination of Gaussian 09 at Mon Jan 10 15:23:36 2005.

 ----------------------------------------------------------------------
 #N Geom=AllCheck Guess=TCheck SCRF=Check GenChk RB3LYP/6-31G(d,p) Freq
 ----------------------------------------------------------------------

 x2-4-NO2-Ph-N2-BF4-v2-RB3LYP-6-311++G_dp
 ----------------------------------------
 Redundant internal coordinates taken from checkpoint file:
 Ph-N2-OTf-N2-Ph.chk
 Charge =  1 Multiplicity = 1

                         Standard orientation:
 ---------------------------------------------------------------------
 Center     Atomic      Atomic             Coordinates (Angstroms)
 Number     Number       Type             X           Y           Z
 ---------------------------------------------------------------------
      1          6           0        3.494034   -0.169435   -0.369704
      2          6           0        3.759045    1.204415   -0.238885
      3          6           0        5.023719    1.749499    0.052197
      4          6           0        6.076135    0.863856    0.224325
      5          6           0        5.826044   -0.502638    0.092369
      6          6           0        4.570787   -1.031306   -0.200161
      7          1           0        2.490275   -0.525148   -0.580285
      8          1           0        5.164643    2.820531    0.141592
      9          1           0        7.076811    1.207231    0.454992
     10          1           0        4.449401   -2.104069   -0.284779
     11          7           0        2.720870    2.102407   -0.431395
     12          7           0        1.918336    2.850316   -0.612285
     13          1           0       -2.397716    1.363264   -0.385436
     14          6           0       -3.397852    0.963347   -0.249933
     15          6           0       -3.642027   -0.416233   -0.388207
     16          6           0       -4.487000    1.763574    0.076777
     17          6           0       -4.897366   -1.019681   -0.216643
     18          6           0       -5.755802    1.207550    0.264153
     19          1           0       -4.343950    2.831650    0.194109
     20          6           0       -5.935778   -0.168603    0.113956
     21          1           0       -5.066898   -2.083990   -0.327370
     22          1           0       -6.611599    1.819687    0.524968
     23          7           0       -2.594038   -1.251512   -0.737929
     24          7           0       -1.780059   -1.942800   -1.047730
     25          7           0        6.965788   -1.444977    0.274775
     26          8           0        6.719688   -2.637423    0.147812
     27          8           0        8.053945   -0.947071    0.535211
     28          7           0       -7.284593   -0.755424    0.310606
     29          8           0       -8.183820    0.019782    0.605786
     30          8           0       -7.383614   -1.967767    0.159327
     31          9           0        1.142970    0.687475    1.066324
     32          9           0       -1.032884   -0.096014    0.995082
     33          9           0        0.440540   -0.621438   -0.684642
     34          9           0       -0.339724    1.529530   -0.470327
     35          5           0        0.052716    0.372511    0.253084
 ---------------------------------------------------------------------

 SCF Done:  E(RB3LYP) =  -1515.38125003     A.U. after    1 cycles

 The electronic state is 1-A.
 Alpha  occ. eigenvalues --  -24.74976 -24.74949 -24.74399 -24.74399 -19.30475
 Alpha  occ. eigenvalues --  -19.30379 -19.30323 -19.30317 -14.69673 -14.69465
 Alpha  occ. eigenvalues --  -14.69350 -14.69170 -14.66126 -14.65932 -10.44753
 Alpha  occ. eigenvalues --  -10.44719 -10.40734 -10.40272 -10.39315 -10.39048
 Alpha  occ. eigenvalues --  -10.38068 -10.37969 -10.37503 -10.36931 -10.36595
 Alpha  occ. eigenvalues --  -10.36365  -6.94220  -1.34961  -1.34806  -1.34288
 Alpha  occ. eigenvalues --   -1.34101  -1.28431  -1.23068  -1.22954  -1.22835
 Alpha  occ. eigenvalues --   -1.17941  -1.17791  -1.07976  -1.07901  -1.00973
 Alpha  occ. eigenvalues --   -1.00764  -0.94807  -0.93449  -0.90965  -0.87934
 Alpha  occ. eigenvalues --   -0.84901  -0.80117  -0.79624  -0.77402  -0.73325
 Alpha  occ. eigenvalues --   -0.72003  -0.69428  -0.69299  -0.69244  -0.68888
 Alpha  occ. eigenvalues --   -0.68147  -0.68115  -0.65986  -0.65570  -0.65388
 Alpha  occ. eigenvalues --   -0.65323  -0.65169  -0.63781  -0.63507  -0.63469
 Alpha  occ. eigenvalues --   -0.61803  -0.61465  -0.61136  -0.60411  -0.60192
 Alpha  occ. eigenvalues --   -0.58229  -0.58127  -0.58022  -0.57714  -0.55058
 Alpha  occ. eigenvalues --   -0.54533  -0.54482  -0.53408  -0.52742  -0.49338
 Alpha  occ. eigenvalues --   -0.49248  -0.47460  -0.47267  -0.47143  -0.44899
 Alpha  occ. eigenvalues --   -0.44602  -0.44311  -0.44166  -0.44140  -0.43275
 Alpha  occ. eigenvalues --   -0.43212  -0.42739  -0.42639  -0.42535  -0.42347
 Alpha  occ. eigenvalues --   -0.41428  -0.41215
 Alpha virt. eigenvalues --   -0.26649  -0.25875  -0.23705  -0.23554  -0.21629
 Alpha virt. eigenvalues --   -0.19284  -0.17567  -0.15556  -0.12605  -0.12250
 Alpha virt. eigenvalues --   -0.06578  -0.06404  -0.00550  -0.00363  -0.00182

 Mulliken atomic charges:
              1
     1  C   -0.010092
     2  C    0.245391
     3  C   -0.045553
     4  C   -0.088242
     5  C    0.278552
     6  C   -0.103855
     7  H    0.195862
     8  H    0.176460
     9  H    0.194375
    10  H    0.193616
    11  N    0.141459
    12  N   -0.008977
    13  H    0.192287
    14  C    0.016776
    15  C    0.226043
    16  C   -0.112412
    17  C   -0.037899
    18  C   -0.040161
    19  H    0.168138
    20  C    0.239910
    21  H    0.201900
    22  H    0.192924
    23  N    0.143574
    24  N   -0.011259
    25  N    0.412214
    26  O   -0.352465
    27  O   -0.353425
    28  N    0.410259
    29  O   -0.352251
    30  O   -0.362332
    31  F   -0.363977
    32  F   -0.363599
    33  F   -0.356784
    34  F   -0.357051
    35  B    0.690594
 Sum of Mulliken atomic charges =   1.00000

 Dipole moment (field-independent basis, Debye):
    X=              0.8204    Y=              5.5421    Z=             -3.6832  Tot=              6.7048
 Quadrupole moment (field-independent basis, Debye-Ang):
   XX=            -66.5086   YY=           -120.5001   ZZ=           -143.4439
   XY=             19.4690   XZ=              1.5327   YZ=              2.5023

  Exact polarizability: 304.794 -36.045 216.463  -3.439  10.467  82.800
 Approx polarizability: 465.163 -79.686 438.441  -6.886  32.788 136.953

                     1                      2                      3
                     A                      A                      A
 Frequencies --     8.7439                17.5236                19.3038
 Red. masses --    11.3304                11.8683                 8.0778
 Frc consts  --     0.0005                 0.0021                 0.0018
 IR Inten    --     0.2912                 0.5408                 0.0655

                     4                      5                      6
                     A                      A                      A
 Frequencies --    27.1641                45.0665                47.6941
 Red. masses --     8.8844                14.3047                10.8256
 Frc consts  --     0.0039                 0.0171                 0.0145
 IR Inten    --     0.6198                 1.2832                 3.6545

                     7                      8                      9
                     A                      A                      A
 Frequencies --    49.8206                56.6955                67.7715
 Red. masses --    12.5618                12.2745                 6.6839
 Frc consts  --     0.0184                 0.0232                 0.0181
 IR Inten    --     3.4286                 2.4120                 1.4220

                    10                     11                     12
                     A                      A                      A
 Frequencies --    81.2648                94.8287               102.8384
 Red. masses --    10.0560                11.5154                 9.7261
 Frc consts  --     0.0391                 0.0610                 0.0606
 IR Inten    --     5.6619                 6.7259                 9.5133

                    13                     14                     15
                     A                      A                      A
 Frequencies --   113.4677               118.1519               139.8789
 Red. masses --    11.0383                15.5807                12.2462
 Frc consts  --     0.0837                 0.1281                 0.1412
 IR Inten    --     7.3315                34.2555                24.6700

                    16                     17                     18
                     A                      A                      A
 Frequencies --   143.1801               179.3205               193.0001
 Red. masses --     6.8677                13.1176                11.9276
 Frc consts  --     0.0830                 0.2485                 0.2618
 IR Inten    --     1.4879                 6.1131                23.5783

                    19                     20                     21
                     A                      A                      A
 Frequencies --   195.2081               223.6973               267.2428
 Red. masses --     5.9215                 8.1640                 7.4451
 Frc consts  --     0.1329                 0.2407                 0.3133
 IR Inten    --    14.8149                 0.5718                 0.7431

                    22                     23                     24
                     A                      A                      A
 Frequencies --   269.6279               332.0883               354.1302
 Red. masses --     7.2015                13.4165                18.7783
 Frc consts  --     0.3085                 0.8718                 1.3875
 IR Inten    --     3.6295                11.7077                 0.1104

                    25                     26                     27
                     A                      A                      A
 Frequencies --   364.8962               384.1703               398.9429
 Red. masses --    18.5768                10.7124                 4.2425
 Frc consts  --     1.4573                 0.9315                 0.3978
 IR Inten    --     0.4326                12.5915                 0.5694

                    28                     29                     30
                     A                      A                      A
 Frequencies --   409.9007               434.7029               436.4969
 Red. masses --     3.1146                 5.2968                 4.1887
 Frc consts  --     0.3083                 0.5897                 0.4702
 IR Inten    --     0.9726                 0.0848                 0.8244

                    31                     32                     33
                     A                      A                      A
 Frequencies --   448.6034               504.1181               514.8333
 Red. masses --     9.1289                11.0025                13.7031
 Frc consts  --     1.0824                 1.6474                 2.1399
 IR Inten    --     3.4657                 0.2508                 2.0632

                    34                     35                     36
                     A                      A                      A
 Frequencies --   515.6096               517.5461               529.6402
 Red. masses --    17.7599                12.4421                17.5783
 Frc consts  --     2.7819                 1.9636                 2.9053
 IR Inten    --     3.1409                 1.1510                38.4971

                    37                     38                     39
                     A                      A                      A
 Frequencies --   547.6354               559.5274               565.0127
 Red. masses --     5.6394                 6.3642                 7.5587
 Frc consts  --     0.9965                 1.1739                 1.4217
 IR Inten    --     9.1772                 2.3203                 7.5137

                    40                     41                     42
                     A                      A                      A
 Frequencies --   574.6023               576.2331               644.9554
 Red. masses --     8.0721                 6.7623                 7.4676
 Frc consts  --     1.5703                 1.3229                 1.8302
 IR Inten    --     1.3531                 2.2608                 4.3678

                    43                     44                     45
                     A                      A                      A
 Frequencies --   657.0242               663.7409               675.0899
 Red. masses --     3.0158                 4.8082                 7.4260
 Frc consts  --     0.7670                 1.2480                 1.9940
 IR Inten    --    10.9239                15.1583                 2.3656

                    46                     47                     48
                     A                      A                      A
 Frequencies --   737.0957               746.5249               766.9632
 Red. masses --     5.0443                 4.1770                18.6904
 Frc consts  --     1.6147                 1.3715                 6.4776
 IR Inten    --    25.1406                18.6569                 1.9293

                    49                     50                     51
                     A                      A                      A
 Frequencies --   775.9925               798.8368               839.1887
 Red. masses --     7.3937                10.7712                 1.3485
 Frc consts  --     2.6232                 4.0498                 0.5595
 IR Inten    --    28.5041                29.7783                20.7400

                    52                     53                     54
                     A                      A                      A
 Frequencies --   847.5348               865.9553               901.4107
 Red. masses --     1.3087                10.2520                 1.5250
 Frc consts  --     0.5539                 4.5295                 0.7301
 IR Inten    --     4.8412                44.9467                38.4130

                    55                     56                     57
                     A                      A                      A
 Frequencies --   910.9307               933.0817               995.1571
 Red. masses --     6.7458                 1.4740                 1.3210
 Frc consts  --     3.2980                 0.7561                 0.7708
 IR Inten    --    42.6629                12.9256                 0.6975

                    58                     59                     60
                     A                      A                      A
 Frequencies --  1002.8519              1009.9531              1022.8679
 Red. masses --     1.3734                 5.6291                 1.8590
 Frc consts  --     0.8138                 3.3829                 1.1460
 IR Inten    --     6.9222                 5.2453                 5.0134

                    61                     62                     63
                     A                      A                      A
 Frequencies --  1025.6082              1034.8468              1054.6185
 Red. masses --     1.8361                 1.3467                 7.4517
 Frc consts  --     1.1379                 0.8497                 4.8831
 IR Inten    --     7.3615                 4.7379               152.6296

                    64                     65                     66
                     A                      A                      A
 Frequencies --  1094.2434              1102.9828              1115.4591
 Red. masses --     1.6777                 8.5461                 3.2325
 Frc consts  --     1.1836                 6.1257                 2.3697
 IR Inten    --   107.3388               220.9367                59.4965

                    67                     68                     69
                     A                      A                      A
 Frequencies --  1123.1918              1130.8221              1142.7953
 Red. masses --     1.7081                 2.8067                 1.5690
 Frc consts  --     1.2696                 2.1147                 1.2073
 IR Inten    --    12.6083                77.0770                66.4356

                    70                     71                     72
                     A                      A                      A
 Frequencies --  1164.8453              1171.7795              1212.3304
 Red. masses --     6.2044                 7.1271                 1.2166
 Frc consts  --     4.9601                 5.7658                 1.0535
 IR Inten    --   112.0356               608.3390                 2.6274

                    73                     74                     75
                     A                      A                      A
 Frequencies --  1213.7287              1312.6370              1333.0487
 Red. masses --     1.3253                 1.4087                 1.3373
 Frc consts  --     1.1503                 1.4301                 1.4001
 IR Inten    --     2.2636                 0.8994                 9.3860

                    76                     77                     78
                     A                      A                      A
 Frequencies --  1381.2131              1383.1969              1389.3660
 Red. masses --     8.8148                 8.7015                14.5045
 Frc consts  --     9.9080                 9.8087                16.4963
 IR Inten    --    50.1478                 0.0508               200.7992

                    79                     80                     81
                     A                      A                      A
 Frequencies --  1393.3558              1453.5043              1480.3699
 Red. masses --    13.9827                 3.1517                 2.6043
 Frc consts  --    15.9943                 3.9231                 3.3627
 IR Inten    --   214.7394                14.4828                 7.8257

                    82                     83                     84
                     A                      A                      A
 Frequencies --  1496.0423              1504.1167              1613.5418
 Red. masses --     2.1539                 1.9769                 6.1682
 Frc consts  --     2.8403                 2.6352                 9.4617
 IR Inten    --    17.1812                 2.6233                 9.7510

                    85                     86                     87
                     A                      A                      A
 Frequencies --  1617.1338              1626.9089              1628.7073
 Red. masses --     8.0716                 6.3606                 5.6073
 Frc consts  --    12.4367                 9.9191                 8.7638
 IR Inten    --    53.7360                40.8395                73.7846

                    88                     89                     90
                     A                      A                      A
 Frequencies --  1682.6345              1687.3655              2379.5015
 Red. masses --    12.3491                12.2982                13.9490
 Frc consts  --    20.5998                20.6305                46.5334
 IR Inten    --   138.1721               211.4180                79.2280

                    91                     92                     93
                     A                      A                      A
 Frequencies --  2379.7915              3207.2533              3208.5197
 Red. masses --    13.9486                 1.0972                 1.0974
 Frc consts  --    46.5435                 6.6495                 6.6560
 IR Inten    --   213.4395               345.7330                63.0594

                    94                     95                     96
                     A                      A                      A
 Frequencies --  3230.3588              3231.6764              3242.5919
 Red. masses --     1.0922                 1.0929                 1.0949
 Frc consts  --     6.7154                 6.7252                 6.7829
 IR Inten    --    12.4496                 3.9031                12.3479

                    97                     98                     99
                     A                      A                      A
 Frequencies --  3246.9015              3250.5401              3252.8732
 Red. masses --     1.0942                 1.0932                 1.0948
 Frc consts  --     6.7964                 6.8057                 6.8255
 IR Inten    --    22.6398                21.3407                18.3444

 - Thermochemistry -
 -------------------
 Temperature   298.150 Kelvin.  Pressure   1.00000 Atm.
 Atom     1 has atomic number  6 and mass  12.00000

 Molecular mass:   387.06362 amu.
 Principal axes and moments of inertia in atomic units:
                           1         2         3
     Eigenvalues --  2989.97445********************
           X            1.00000  -0.00057  -0.00007
           Y            0.00057   0.99999   0.00487
           Z            0.00006  -0.00487   0.99999
 This molecule is an asymmetric top.
 Rotational symmetry number  1.
 Warning -- assumption of classical behavior for rotation
           may cause significant error
 Rotational temperatures (Kelvin)      0.02897     0.00265     0.00248
 Rotational constants (GHZ):           0.60360     0.05527     0.05175
 Zero-point vibrational energy     576754.0 (Joules/Mol)
                                  137.84751 (Kcal/Mol)
 Warning -- explicit consideration of  41 degrees of freedom as
           vibrations may cause significant error
 Vibrational temperatures:     12.58    25.21    27.77    39.08    64.84
          (Kelvin)             68.62    71.68    81.57    97.51   116.92
                              136.44   147.96   163.25   169.99   201.25
                              206.00   258.00   277.68   280.86   321.85
                              384.50   387.93   477.80   509.51   525.00
                              552.73   573.99   589.75   625.44   628.02
                              645.44   725.31   740.73   741.85   744.63
                              762.03   787.92   805.03   812.93   826.72
                              829.07   927.95   945.31   954.97   971.30
                             1060.52  1074.08  1103.49  1116.48  1149.35
                             1207.40  1219.41  1245.92  1296.93  1310.62
                             1342.49  1431.81  1442.88  1453.10  1471.68
                             1475.62  1488.91  1517.36  1574.37  1586.94
                             1604.89  1616.02  1627.00  1644.23  1675.95
                             1685.93  1744.27  1746.28  1888.59  1917.96
                             1987.26  1990.11  1998.99  2004.73  2091.27
                             2129.92  2152.47  2164.09  2321.52  2326.69
                             2340.76  2343.34  2420.93  2427.74  3423.57
                             3423.98  4614.52  4616.34  4647.76  4649.66
                             4665.36  4671.56  4676.80  4680.15

 Zero-point correction=                           0.219674 (Hartree/Particle)
 Thermal correction to Energy=                    0.245064
 Thermal correction to Enthalpy=                  0.246008
 Thermal correction to Gibbs Free Energy=         0.157783
 Sum of electronic and zero-point Energies=          -1515.161576
 Sum of electronic and thermal Energies=             -1515.136186
 Sum of electronic and thermal Enthalpies=           -1515.135242
 Sum of electronic and thermal Free Energies=        -1515.223467

                     E (Thermal)             CV                S
                      KCal/Mol        Cal/Mol-Kelvin    Cal/Mol-Kelvin
 Total                  153.780             89.651            185.685
 Electronic               0.000              0.000              0.000
 Translational            0.889              2.981             43.752
 Rotational               0.889              2.981             36.475
 Vibrational            152.002             83.690            105.458
 Vibration     1          0.593              1.987              8.278
 Vibration     2          0.593              1.986              6.897
 Vibration     3          0.593              1.986              6.705
 Vibration     4          0.593              1.984              6.026
 Vibration     5          0.595              1.979              5.023
 Vibration     6          0.595              1.978              4.911
 Vibration     7          0.595              1.978              4.825
 Vibration     8          0.596              1.975              4.569
 Vibration     9          0.598              1.970              4.217
 Vibration    10          0.600              1.962              3.860
 Vibration    11          0.603              1.953              3.558
 Vibration    12          0.605              1.947              3.400
 Vibration    13          0.607              1.938              3.209
 Vibration    14          0.608              1.934              3.130
 Vibration    15          0.615              1.913              2.806
 Vibration    16          0.616              1.910              2.761
 Vibration    17          0.629              1.868              2.335
 Vibration    18          0.635              1.850              2.199
 Vibration    19          0.636              1.847              2.178
 Vibration    20          0.649              1.805              1.929
 Vibration    21          0.672              1.733              1.614
 Vibration    22          0.674              1.729              1.599
 Vibration    23          0.714              1.611              1.250
 Vibration    24          0.730              1.567              1.148
 Vibration    25          0.738              1.545              1.101
 Vibration    26          0.753              1.504              1.023
 Vibration    27          0.765              1.472              0.967
 Vibration    28          0.774              1.449              0.927
 Vibration    29          0.795              1.395              0.843
 Vibration    30          0.797              1.391              0.838
 Vibration    31          0.808              1.364              0.800
 Vibration    32          0.859              1.241              0.648
 Vibration    33          0.870              1.217              0.622
 Vibration    34          0.871              1.215              0.620
 Vibration    35          0.873              1.211              0.616
 Vibration    36          0.885              1.184              0.588
 Vibration    37          0.903              1.145              0.549
 Vibration    38          0.915              1.119              0.525
 Vibration    39          0.921              1.107              0.514
 Vibration    40          0.931              1.086              0.495
 Vibration    41          0.933              1.083              0.492

 Normal termination of Gaussian 09 at Mon Jan 10 15:47:33 2005.
