 Gaussian 09, Revision B.01,
 Gaussian 09:  EM64L-G09RevB.01 12-Aug-2010

 ------------------------------------------------
 #p Temperature=298.15 opt freq rb3lyp/6-31G(d,p)
 ------------------------------------------------

 --------------------------------------
 x2-4-CH3O-Ph-N2-OTf-v2-RB3LYP-6-31G_dp
 --------------------------------------
 Symbolic Z-matrix:
 Charge =  1 Multiplicity = 1

 SCF Done:  E(RB3LYP) =  -1872.46956981     A.U. after   18 cycles
 SCF Done:  E(RB3LYP) =  -1872.46977760     A.U. after   15 cycles
 SCF Done:  E(RB3LYP) =  -1872.46708850     A.U. after   18 cycles
 SCF Done:  E(RB3LYP) =  -1872.46986624     A.U. after   18 cycles
 SCF Done:  E(RB3LYP) =  -1872.47017350     A.U. after   13 cycles
 SCF Done:  E(RB3LYP) =  -1872.47027310     A.U. after   13 cycles
 SCF Done:  E(RB3LYP) =  -1872.46993023     A.U. after   15 cycles
 SCF Done:  E(RB3LYP) =  -1872.47040978     A.U. after   13 cycles
 SCF Done:  E(RB3LYP) =  -1872.47057297     A.U. after   13 cycles
 SCF Done:  E(RB3LYP) =  -1872.47074940     A.U. after   15 cycles
 SCF Done:  E(RB3LYP) =  -1872.47190370     A.U. after    8 cycles
 SCF Done:  E(RB3LYP) =  -1872.47190436     A.U. after    8 cycles
 SCF Done:  E(RB3LYP) =  -1872.47190477     A.U. after    8 cycles
 SCF Done:  E(RB3LYP) =  -1872.47190467     A.U. after    8 cycles
 SCF Done:  E(RB3LYP) =  -1872.47190465     A.U. after    7 cycles
 SCF Done:  E(RB3LYP) =  -1872.47190449     A.U. after    8 cycles
 SCF Done:  E(RB3LYP) =  -1872.47190428     A.U. after    8 cycles
 SCF Done:  E(RB3LYP) =  -1872.47190415     A.U. after    8 cycles
 SCF Done:  E(RB3LYP) =  -1872.47190406     A.U. after    7 cycles
 Optimization completed.
    -- Stationary point found.
 Normal termination of Gaussian 09 at Thu Feb 24 06:47:06 2005.

 ----------------------------------------------------------------------
 #P Geom=AllCheck Guess=TCheck SCRF=Check GenChk RB3LYP/6-31G(d,p) Freq
 ----------------------------------------------------------------------

 x2-4-CH3O-Ph-N2-OTf-v2-RB3LYP-6-31G_dp
 --------------------------------------
 Redundant internal coordinates taken from checkpoint file:
 /home/ubuntu/g09/Gau-20349.chk
 Charge =  1 Multiplicity = 1

                         Standard orientation:
 ---------------------------------------------------------------------
 Center     Atomic      Atomic             Coordinates (Angstroms)
 Number     Number       Type             X           Y           Z
 ---------------------------------------------------------------------
      1          6           0       -3.980001   -0.409220   -0.416505
      2          6           0       -3.905850   -0.711998    0.957839
      3          6           0       -4.994838   -1.262881    1.679293
      4          6           0       -6.162328   -1.511260    1.001868
      5          6           0       -6.264396   -1.216374   -0.382373
      6          6           0       -5.165602   -0.665843   -1.078356
      7          1           0       -3.118111    0.035880   -0.904890
      8          1           0       -4.900813   -1.481175    2.737127
      9          1           0       -7.025245   -1.932002    1.504602
     10          1           0       -5.237393   -0.431882   -2.132524
     11          7           0       -2.747293   -0.475319    1.644288
     12          7           0       -1.825023   -0.319396    2.258482
     13         16           0       -0.045788    1.007825   -0.229585
     14          8           0        0.264204   -0.133820    0.678875
     15          8           0        0.870529    1.108791   -1.387874
     16          8           0       -1.489904    1.176205   -0.511548
     17          6           0        0.378869    2.502434    0.792125
     18          9           0        1.707318    2.504214    1.048011
     19          9           0       -0.273982    2.481069    1.960698
     20          9           0        0.077993    3.629910    0.146220
     21          1           0        2.312349   -0.432263   -0.028162
     22          6           0        3.375373   -0.595791   -0.185253
     23          6           0        4.183034    0.380412   -0.819027
     24          6           0        3.991883   -1.753838    0.227006
     25          6           0        5.567500    0.205666   -1.034346
     26          6           0        5.377261   -1.959108    0.020743
     27          1           0        3.423925   -2.533903    0.720489
     28          6           0        6.161153   -0.965900   -0.615175
     29          1           0        6.148499    0.980542   -1.522164
     30          1           0        7.221102   -1.110561   -0.777236
     31          7           0        3.623873    1.551610   -1.239265
     32          7           0        3.165682    2.511321   -1.579113
     33          8           0        5.854061   -3.119613    0.461797
     34          8           0       -7.443548   -1.494451   -0.931710
     35          6           0       -7.671603   -1.230308   -2.326974
     36          1           0       -6.989250   -1.817420   -2.948636
     37          1           0       -8.698450   -1.539429   -2.513080
     38          1           0       -7.560798   -0.163381   -2.541705
     39          6           0        7.247834   -3.438610    0.308234
     40          1           0        7.871722   -2.719703    0.847540
     41          1           0        7.365390   -4.428209    0.745804
     42          1           0        7.524599   -3.467119   -0.749824
 ---------------------------------------------------------------------

 SCF Done:  E(RB3LYP) =  -1872.47190406     A.U. after    1 cycles

 The electronic state is 1-A.
 Alpha  occ. eigenvalues --  -89.17713 -24.80823 -24.80592 -24.80345 -19.31939
 Alpha  occ. eigenvalues --  -19.31539 -19.20411 -19.20393 -19.20222 -14.64830
 Alpha  occ. eigenvalues --  -14.64039 -14.61096 -14.60490 -10.50802 -10.40402
 Alpha  occ. eigenvalues --  -10.40164 -10.40002 -10.39706 -10.35900 -10.35477
 Alpha  occ. eigenvalues --  -10.35068 -10.35020 -10.34093 -10.34073 -10.33443
 Alpha  occ. eigenvalues --  -10.32618 -10.32508 -10.32355  -8.19981  -6.16428
 Alpha  occ. eigenvalues --   -6.16420  -6.16394  -1.38377  -1.29760  -1.29650
 Alpha  occ. eigenvalues --   -1.29444  -1.28700  -1.20719  -1.20316  -1.18567
 Alpha  occ. eigenvalues --   -1.05512  -1.04932  -1.03893  -1.03306  -0.95833
 Alpha  occ. eigenvalues --   -0.95350  -0.90172  -0.89724  -0.86023  -0.85724
 Alpha  occ. eigenvalues --   -0.79771  -0.79745  -0.79073  -0.76101  -0.75960
 Alpha  occ. eigenvalues --   -0.70775  -0.70629  -0.70222  -0.66263  -0.66189
 Alpha  occ. eigenvalues --   -0.66026  -0.65854  -0.65757  -0.65287  -0.65020
 Alpha  occ. eigenvalues --   -0.64390  -0.62089  -0.61523  -0.60851  -0.59807
 Alpha  occ. eigenvalues --   -0.59504  -0.59265  -0.58835  -0.58426  -0.58310
 Alpha  occ. eigenvalues --   -0.57098  -0.56579  -0.54830  -0.54639  -0.54041
 Alpha  occ. eigenvalues --   -0.53684  -0.53597  -0.53463  -0.52446  -0.51997
 Alpha  occ. eigenvalues --   -0.51558  -0.51381  -0.51150  -0.50120  -0.49801
 Alpha  occ. eigenvalues --   -0.49700  -0.49487  -0.47760  -0.46495  -0.46052
 Alpha  occ. eigenvalues --   -0.45736  -0.45276  -0.40815  -0.40638  -0.39960
 Alpha  occ. eigenvalues --   -0.39644  -0.37635  -0.37289  -0.36886  -0.36591
 Alpha  occ. eigenvalues --   -0.36381  -0.33593
 Alpha virt. eigenvalues --   -0.21510  -0.20989  -0.19789  -0.19016  -0.14122
 Alpha virt. eigenvalues --   -0.13823  -0.09905  -0.09510  -0.03343  -0.02868
 Alpha virt. eigenvalues --   -0.00322   0.00086   0.00745   0.01001   0.02234

 Mulliken atomic charges:
              1
     1  C   -0.024145
     2  C    0.215293
     3  C   -0.038531
     4  C   -0.115909
     5  C    0.399794
     6  C   -0.144013
     7  H    0.210979
     8  H    0.155620
     9  H    0.154293
    10  H    0.143707
    11  N    0.116843
    12  N   -0.052451
    13  S    1.186732
    14  O   -0.618425
    15  O   -0.608633
    16  O   -0.593867
    17  C    0.570523
    18  F   -0.271721
    19  F   -0.242758
    20  F   -0.229648
    21  H    0.213566
    22  C   -0.002742
    23  C    0.216165
    24  C   -0.136662
    25  C   -0.042558
    26  C    0.402198
    27  H    0.155722
    28  C   -0.135129
    29  H    0.159085
    30  H    0.141955
    31  N    0.117953
    32  N   -0.042762
    33  O   -0.477085
    34  O   -0.479066
    35  C   -0.111217
    36  H    0.145015
    37  H    0.167264
    38  H    0.147230
    39  C   -0.111457
    40  H    0.145195
    41  H    0.168678
    42  H    0.144969
 Sum of Mulliken atomic charges =   1.00000

 Dipole moment (field-independent basis, Debye):
    X=              2.0509    Y=             -6.7791    Z=             -1.0136  Tot=              7.1546
 Quadrupole moment (field-independent basis, Debye-Ang):
   XX=             58.9122   YY=           -143.5855   ZZ=           -142.1873
   XY=              0.1683   XZ=             -3.0442   YZ=             -3.9447

  Exact polarizability: 348.049 -10.086 211.663  36.453 -33.327 185.059
 Approx polarizability: 508.084 -26.915 381.649  87.518 -80.898 329.395

                     1                      2                      3
                     A                      A                      A
 Frequencies --     3.8081                 9.6089                17.5501
 Red. masses --     7.2101                 8.4760                 5.6844
 Frc consts  --     0.0001                 0.0005                 0.0010
 IR Inten    --     0.9800                 1.4479                 1.0047

                     4                      5                      6
                     A                      A                      A
 Frequencies --    19.7184                27.3853                29.9638
 Red. masses --     6.8178                 5.6197                 6.0960
 Frc consts  --     0.0016                 0.0025                 0.0032
 IR Inten    --     5.1571                 1.0468                 0.6286

                     7                      8                      9
                     A                      A                      A
 Frequencies --    38.2785                51.7709                56.1664
 Red. masses --     8.5886                 9.8135                 8.8222
 Frc consts  --     0.0074                 0.0155                 0.0164
 IR Inten    --     0.4237                 0.5943                 3.4199

                    10                     11                     12
                     A                      A                      A
 Frequencies --    62.1459                77.2488                82.0651
 Red. masses --     7.8216                 7.0813                 4.9026
 Frc consts  --     0.0178                 0.0249                 0.0195
 IR Inten    --     4.0292                 5.4883                 1.7446

                    13                     14                     15
                     A                      A                      A
 Frequencies --    86.2322                92.9416               116.6711
 Red. masses --     5.3620                12.0421                 9.0535
 Frc consts  --     0.0235                 0.0613                 0.0726
 IR Inten    --     1.0711                 8.4617                53.5057

                    16                     17                     18
                     A                      A                      A
 Frequencies --   146.2485               147.4760               149.0636
 Red. masses --     4.7179                 4.4900                 8.7068
 Frc consts  --     0.0595                 0.0575                 0.1140
 IR Inten    --     4.3109                 5.3228                13.8727

                    19                     20                     21
                     A                      A                      A
 Frequencies --   192.7733               201.3153               207.5110
 Red. masses --     8.5246                10.1113                 1.2672
 Frc consts  --     0.1866                 0.2414                 0.0321
 IR Inten    --     9.6745                10.6009                 3.3346

                    22                     23                     24
                     A                      A                      A
 Frequencies --   212.3810               212.6781               253.4245
 Red. masses --     1.1837                 9.8999                 3.3702
 Frc consts  --     0.0315                 0.2638                 0.1275
 IR Inten    --     0.0739                 5.7531                 3.6142

                    25                     26                     27
                     A                      A                      A
 Frequencies --   259.4072               275.6136               276.6579
 Red. masses --     3.7382                 3.9477                 4.3322
 Frc consts  --     0.1482                 0.1767                 0.1954
 IR Inten    --     0.2855                 1.1659                 1.7141

                    28                     29                     30
                     A                      A                      A
 Frequencies --   305.6196               332.8278               343.1851
 Red. masses --    17.6741                17.5209                17.2110
 Frc consts  --     0.9726                 1.1435                 1.1943
 IR Inten    --     1.8908                 2.3341                12.0734

                    31                     32                     33
                     A                      A                      A
 Frequencies --   384.5082               386.2119               411.8643
 Red. masses --     7.9732                 7.9064                 3.1717
 Frc consts  --     0.6945                 0.6948                 0.3170
 IR Inten    --     3.7142                 6.1909                 0.3085

                    34                     35                     36
                     A                      A                      A
 Frequencies --   416.7404               491.0670               492.0349
 Red. masses --     3.2457                 4.2398                 6.6591
 Frc consts  --     0.3321                 0.6024                 0.9498
 IR Inten    --     0.5318                 1.8988                 4.5963

                    37                     38                     39
                     A                      A                      A
 Frequencies --   494.8065               497.2938               501.6295
 Red. masses --     5.0890                 6.7326                 8.0151
 Frc consts  --     0.7341                 0.9810                 1.1883
 IR Inten    --    11.7435                12.1018                38.8288

                    40                     41                     42
                     A                      A                      A
 Frequencies --   504.2320               540.6276               542.3808
 Red. masses --    10.0341                 5.3696                 5.6370
 Frc consts  --     1.5031                 0.9247                 0.9770
 IR Inten    --    34.3905                 8.3175                 5.9442

                    43                     44                     45
                     A                      A                      A
 Frequencies --   545.1029               545.9794               558.9964
 Red. masses --     5.0281                 5.5492                17.3762
 Frc consts  --     0.8803                 0.9746                 3.1991
 IR Inten    --    11.7049                 7.1595                 5.7719

                    46                     47                     48
                     A                      A                      A
 Frequencies --   564.2486               619.6851               648.2730
 Red. masses --    17.6143                20.1300                 7.2654
 Frc consts  --     3.3041                 4.5544                 1.7990
 IR Inten    --    31.1105               151.0286                 1.5565

                    49                     50                     51
                     A                      A                      A
 Frequencies --   649.8163               703.7170               704.7148
 Red. masses --     7.2288                 3.7161                 4.8688
 Frc consts  --     1.7985                 1.0843                 1.4246
 IR Inten    --     3.3206                 0.1300                 5.4378

                    52                     53                     54
                     A                      A                      A
 Frequencies --   706.4543               706.6171               755.4720
 Red. masses --     5.4681                 4.0786                18.3628
 Frc consts  --     1.6079                 1.1999                 6.1748
 IR Inten    --     5.5226                 3.0678                 2.1857

                    55                     56                     57
                     A                      A                      A
 Frequencies --   814.5423               823.7531               834.3614
 Red. masses --     1.2878                 1.2643                 6.1422
 Frc consts  --     0.5034                 0.5055                 2.5193
 IR Inten    --     6.8424                 4.3722                 5.2567

                    58                     59                     60
                     A                      A                      A
 Frequencies --   834.6344               861.1600               862.3444
 Red. masses --     6.2283                 1.6573                 1.6713
 Frc consts  --     2.5563                 0.7241                 0.7322
 IR Inten    --     0.4925                45.3286                63.0792

                    61                     62                     63
                     A                      A                      A
 Frequencies --   967.6597               976.8174               990.1703
 Red. masses --     1.2845                 1.2750                 1.9157
 Frc consts  --     0.7087                 0.7168                 1.1066
 IR Inten    --     0.0254                 0.1563                63.9777

                    64                     65                     66
                     A                      A                      A
 Frequencies --   992.2374              1008.5367              1012.4565
 Red. masses --     3.2842                 2.5860                 2.7514
 Frc consts  --     1.9051                 1.5497                 1.6617
 IR Inten    --   118.8743                 9.1585                 7.4143

                    67                     68                     69
                     A                      A                      A
 Frequencies --  1020.6043              1035.6372              1036.5748
 Red. masses --     1.3034                 7.2587                 7.0947
 Frc consts  --     0.7999                 4.5869                 4.4915
 IR Inten    --    16.2676               104.1340                92.2478

                    70                     71                     72
                     A                      A                      A
 Frequencies --  1149.9637              1157.4828              1160.6068
 Red. masses --     1.2744                 1.3215                 2.3641
 Frc consts  --     0.9929                 1.0432                 1.8762
 IR Inten    --     5.1253                 4.9002               614.8430

                    73                     74                     75
                     A                      A                      A
 Frequencies --  1166.3888              1170.4035              1170.4213
 Red. masses --     2.2273                 1.2674                 1.2671
 Frc consts  --     1.7853                 1.0229                 1.0227
 IR Inten    --   193.6637                 0.9219                 0.7846

                    76                     77                     78
                     A                      A                      A
 Frequencies --  1187.4242              1196.9933              1208.5445
 Red. masses --    12.1662                11.3592                 1.3530
 Frc consts  --    10.1068                 9.5892                 1.1643
 IR Inten    --    60.8564               189.1916                 0.5761

                    79                     80                     81
                     A                      A                      A
 Frequencies --  1209.1684              1222.3785              1225.6449
 Red. masses --     1.3409                 2.1594                 1.6543
 Frc consts  --     1.1551                 1.9011                 1.4641
 IR Inten    --     6.0965                68.4250                 5.9724

                    82                     83                     84
                     A                      A                      A
 Frequencies --  1230.5710              1250.5647              1255.1612
 Red. masses --     4.4779                11.0721                11.0972
 Frc consts  --     3.9952                10.2021                10.3006
 IR Inten    --    40.9984               479.5823               439.2769

                    85                     86                     87
                     A                      A                      A
 Frequencies --  1337.4748              1339.2263              1349.1867
 Red. masses --     1.4676                 1.3472                 2.7997
 Frc consts  --     1.5468                 1.4237                 3.0026
 IR Inten    --    39.5716                22.8625               269.2359

                    88                     89                     90
                     A                      A                      A
 Frequencies --  1351.8208              1380.9183              1382.2238
 Red. masses --     3.5756                 5.2892                 4.8095
 Frc consts  --     3.8498                 5.9426                 5.4138
 IR Inten    --   249.0174               131.2443               105.0798

                    91                     92                     93
                     A                      A                      A
 Frequencies --  1483.5380              1483.7196              1496.0419
 Red. masses --     1.2563                 1.2832                 2.5087
 Frc consts  --     1.6291                 1.6644                 3.3082
 IR Inten    --    38.9714                14.7463                32.2770

                    94                     95                     96
                     A                      A                      A
 Frequencies --  1497.1594              1508.8022              1510.1049
 Red. masses --     2.4039                 1.0529                 1.1408
 Frc consts  --     3.1747                 1.4122                 1.5328
 IR Inten    --    30.3645                12.7319                29.1548

                    97                     98                     99
                     A                      A                      A
 Frequencies --  1510.2686              1510.5359              1538.7101
 Red. masses --     1.2444                 1.1152                 2.5149
 Frc consts  --     1.6723                 1.4992                 3.5082
 IR Inten    --    12.8468                20.7585                62.7011

                   100                    101                    102
                     A                      A                      A
 Frequencies --  1539.4602              1582.4115              1584.0609
 Red. masses --     2.5108                 5.8102                 6.3579
 Frc consts  --     3.5059                 8.5719                 9.3995
 IR Inten    --    72.0545                36.4251                32.2603

                   103                    104                    105
                     A                      A                      A
 Frequencies --  1645.8957              1647.4077              2317.4231
 Red. masses --     5.3454                 5.3443                13.9188
 Frc consts  --     8.5318                 8.5456                44.0417
 IR Inten    --   793.6562               298.8851               264.9888

                   106                    107                    108
                     A                      A                      A
 Frequencies --  2343.5392              3052.6373              3053.2738
 Red. masses --    13.9276                 1.0328                 1.0327
 Frc consts  --    45.0681                 5.6704                 5.6722
 IR Inten    --   421.3782                30.5410                25.4492

                   109                    110                    111
                     A                      A                      A
 Frequencies --  3133.3594              3134.0894              3188.9560
 Red. masses --     1.1086                 1.1086                 1.0976
 Frc consts  --     6.4125                 6.4156                 6.5764
 IR Inten    --    14.5719                14.1816               316.8483

                   112                    113                    114
                     A                      A                      A
 Frequencies --  3189.8527              3189.8763              3202.3427
 Red. masses --     1.1034                 1.1033                 1.0960
 Frc consts  --     6.6151                 6.6144                 6.6223
 IR Inten    --    11.0242                 3.1635               140.6787

                   115                    116                    117
                     A                      A                      A
 Frequencies --  3222.9438              3223.8760              3234.0967
 Red. masses --     1.0920                 1.0903                 1.0933
 Frc consts  --     6.6830                 6.6763                 6.7375
 IR Inten    --     1.2214                 0.2967                 6.2437

                   118                    119                    120
                     A                      A                      A
 Frequencies --  3237.9637              3245.2888              3248.2373
 Red. masses --     1.0968                 1.0920                 1.0936
 Frc consts  --     6.7754                 6.7762                 6.7986
 IR Inten    --     1.7940                 5.5207                 1.1440

 - Thermochemistry -
 -------------------
 Temperature   298.150 Kelvin.  Pressure   1.00000 Atm.
 Atom     1 has atomic number  6 and mass  12.00000

 Molecular mass:   419.06370 amu.
 Principal axes and moments of inertia in atomic units:
                           1         2         3
     Eigenvalues --  6742.44892********************
           X            0.99995  -0.00714   0.00637
           Y            0.00721   0.99991  -0.01157
           Z           -0.00628   0.01161   0.99991
 This molecule is an asymmetric top.
 Rotational symmetry number  1.
 Warning -- assumption of classical behavior for rotation
           may cause significant error
 Rotational temperatures (Kelvin)      0.01285     0.00299     0.00272
 Rotational constants (GHZ):           0.26767     0.06238     0.05669
 Zero-point vibrational energy     769139.8 (Joules/Mol)
                                  183.82884 (Kcal/Mol)
 Warning -- explicit consideration of  47 degrees of freedom as
           vibrations may cause significant error
 Vibrational temperatures:      5.48    13.83    25.25    28.37    39.40
          (Kelvin)             43.11    55.07    74.49    80.81    89.41
                              111.14   118.07   124.07   133.72   167.86
                              210.42   212.18   214.47   277.36   289.65
                              298.56   305.57   306.00   364.62   373.23
                              396.55   398.05   439.72   478.86   493.77
                              553.22   555.67   592.58   599.60   706.54
                              707.93   711.92   715.49   721.73   725.48
                              777.84   780.36   784.28   785.54   804.27
                              811.83   891.59   932.72   934.94  1012.49
                             1013.93  1016.43  1016.66  1086.95  1171.94
                             1185.20  1200.46  1200.85  1239.02  1240.72
                             1392.24  1405.42  1424.63  1427.61  1451.06
                             1456.70  1468.42  1490.05  1491.40  1654.54
                             1665.36  1669.85  1678.17  1683.95  1683.97
                             1708.44  1722.20  1738.82  1739.72  1758.73
                             1763.43  1770.52  1799.28  1805.89  1924.33
                             1926.85  1941.18  1944.97  1986.83  1988.71
                             2134.48  2134.74  2152.47  2154.08  2170.83
                             2172.70  2172.94  2173.32  2213.86  2214.94
                             2276.73  2279.11  2368.07  2370.25  3334.25
                             3371.83  4392.06  4392.97  4508.20  4509.25
                             4588.19  4589.48  4589.51  4607.45  4637.09
                             4638.43  4653.14  4658.70  4669.24  4673.48

 Zero-point correction=                           0.292950 (Hartree/Particle)
 Thermal correction to Energy=                    0.321812
 Thermal correction to Enthalpy=                  0.322756
 Thermal correction to Gibbs Free Energy=         0.224286
 Sum of electronic and zero-point Energies=          -1872.178954
 Sum of electronic and thermal Energies=             -1872.150092
 Sum of electronic and thermal Enthalpies=           -1872.149148
 Sum of electronic and thermal Free Energies=        -1872.247618

                     E (Thermal)             CV                S
                      KCal/Mol        Cal/Mol-Kelvin    Cal/Mol-Kelvin
 Total                  201.940            101.038            207.247
 Electronic               0.000              0.000              0.000
 Translational            0.889              2.981             43.989
 Rotational               0.889              2.981             37.072
 Vibrational            200.163             95.076            126.187
 Vibration     1          0.593              1.987              9.929
 Vibration     2          0.593              1.987              8.090
 Vibration     3          0.593              1.986              6.894
 Vibration     4          0.593              1.986              6.662
 Vibration     5          0.593              1.984              6.010
 Vibration     6          0.594              1.984              5.832
 Vibration     7          0.594              1.982              5.346
 Vibration     8          0.596              1.977              4.749
 Vibration     9          0.596              1.975              4.588
 Vibration    10          0.597              1.972              4.388
 Vibration    11          0.599              1.964              3.960
 Vibration    12          0.600              1.961              3.841
 Vibration    13          0.601              1.959              3.744
 Vibration    14          0.602              1.954              3.597
 Vibration    15          0.608              1.936              3.155
 Vibration    16          0.617              1.907              2.720
 Vibration    17          0.617              1.905              2.705
 Vibration    18          0.618              1.904              2.684
 Vibration    19          0.635              1.850              2.201
 Vibration    20          0.638              1.838              2.121
 Vibration    21          0.641              1.829              2.065
 Vibration    22          0.643              1.822              2.023
 Vibration    23          0.644              1.822              2.021
 Vibration    24          0.665              1.757              1.707
 Vibration    25          0.668              1.747              1.666
 Vibration    26          0.677              1.718              1.561
 Vibration    27          0.678              1.717              1.554
 Vibration    28          0.696              1.663              1.386
 Vibration    29          0.715              1.610              1.246
 Vibration    30          0.722              1.589              1.197
 Vibration    31          0.753              1.503              1.021
 Vibration    32          0.755              1.500              1.015
 Vibration    33          0.776              1.444              0.920
 Vibration    34          0.780              1.434              0.903
 Vibration    35          0.847              1.270              0.681
 Vibration    36          0.848              1.268              0.678
 Vibration    37          0.850              1.262              0.671
 Vibration    38          0.853              1.256              0.665
 Vibration    39          0.857              1.246              0.654
 Vibration    40          0.860              1.241              0.648
 Vibration    41          0.896              1.160              0.564
 Vibration    42          0.897              1.156              0.560
 Vibration    43          0.900              1.150              0.554
 Vibration    44          0.901              1.148              0.553
 Vibration    45          0.915              1.120              0.526
 Vibration    46          0.920              1.109              0.515
 Vibration    47          0.980              0.990              0.417

 Normal termination of Gaussian 09 at Thu Feb 24 07:22:32 2005.
