 Gaussian 09, Revision B.01,
 Gaussian 09:  EM64L-G09RevB.01 12-Aug-2010

 ----------------------------
 # opt freq rb3lyp/6-31G(d,p)
 ----------------------------

 -----------------------------------------
 x2-4-HOOC-Ph-N2-OTf-v1-RB3LYP-6-311++G_dp
 -----------------------------------------
 Symbolic Z-matrix:
 Charge =  1 Multiplicity = 1

 SCF Done:  E(RB3LYP) =  -2020.48932011     A.U. after   19 cycles
 SCF Done:  E(RB3LYP) =  -2020.52365722     A.U. after   15 cycles
 SCF Done:  E(RB3LYP) =  -2020.53217845     A.U. after   14 cycles
 SCF Done:  E(RB3LYP) =  -2020.53512691     A.U. after   14 cycles
 SCF Done:  E(RB3LYP) =  -2020.53616410     A.U. after   13 cycles
 SCF Done:  E(RB3LYP) =  -2020.53654508     A.U. after   12 cycles
 SCF Done:  E(RB3LYP) =  -2020.53662737     A.U. after   12 cycles
 SCF Done:  E(RB3LYP) =  -2020.53677505     A.U. after   12 cycles
 SCF Done:  E(RB3LYP) =  -2020.53700565     A.U. after   12 cycles
 SCF Done:  E(RB3LYP) =  -2020.53735006     A.U. after   13 cycles
 SCF Done:  E(RB3LYP) =  -2020.53884035     A.U. after    9 cycles
 SCF Done:  E(RB3LYP) =  -2020.53884123     A.U. after    8 cycles
 SCF Done:  E(RB3LYP) =  -2020.53884192     A.U. after   10 cycles
 SCF Done:  E(RB3LYP) =  -2020.53884202     A.U. after    8 cycles
 SCF Done:  E(RB3LYP) =  -2020.53884208     A.U. after    8 cycles
 SCF Done:  E(RB3LYP) =  -2020.53884196     A.U. after    8 cycles
 SCF Done:  E(RB3LYP) =  -2020.53884204     A.U. after    7 cycles
 SCF Done:  E(RB3LYP) =  -2020.53884202     A.U. after    7 cycles
 SCF Done:  E(RB3LYP) =  -2020.53884206     A.U. after    7 cycles
 Optimization completed.
    -- Stationary point found.
 Normal termination of Gaussian 09 at Mon Jan 10 11:02:01 2005.

 ----------------------------------------------------------------------
 #N Geom=AllCheck Guess=TCheck SCRF=Check GenChk RB3LYP/6-31G(d,p) Freq
 ----------------------------------------------------------------------

 x2-4-HOOC-Ph-N2-OTf-v1-RB3LYP-6-311++G_dp
 -----------------------------------------
 Redundant internal coordinates taken from checkpoint file:
 Ph-N2-OTf-N2-Ph.chk
 Charge =  1 Multiplicity = 1

                         Standard orientation:
 ---------------------------------------------------------------------
 Center     Atomic      Atomic             Coordinates (Angstroms)
 Number     Number       Type             X           Y           Z
 ---------------------------------------------------------------------
      1          6           0       -4.163650   -0.431105   -0.262637
      2          6           0       -4.358167    0.854601    0.267617
      3          6           0       -5.597780    1.342589    0.727735
      4          6           0       -6.682243    0.486615    0.651964
      5          6           0       -6.525300   -0.807784    0.128890
      6          6           0       -5.278400   -1.259302   -0.324870
      7          1           0       -3.176984   -0.724448   -0.608855
      8          1           0       -5.688760    2.346857    1.125612
      9          1           0       -7.664242    0.797137    0.990424
     10          1           0       -5.182240   -2.260076   -0.727938
     11          7           0       -3.276357    1.715635    0.354497
     12          7           0       -2.434721    2.438285    0.459821
     13         16           0       -0.080792    0.275451   -0.337482
     14          8           0       -0.295419    1.051007    0.921578
     15          8           0        0.842663   -0.870239   -0.172387
     16          8           0       -1.326207    0.018794   -1.093946
     17          6           0        0.872112    1.456436   -1.410440
     18          9           0        2.045980    1.747162   -0.803778
     19          9           0        0.192385    2.593377   -1.583514
     20          9           0        1.138786    0.916508   -2.599492
     21          1           0        2.881907   -1.005992   -0.424292
     22          6           0        3.825778   -0.798057    0.068816
     23          6           0        3.829193   -0.176562    1.327425
     24          6           0        5.063172   -1.118900   -0.476972
     25          6           0        4.997548    0.132654    2.053359
     26          6           0        6.244570   -0.821208    0.215884
     27          1           0        5.114365   -1.601090   -1.445533
     28          6           0        6.209750   -0.198070    1.474380
     29          1           0        4.939947    0.612808    3.023542
     30          1           0        7.146021    0.014904    1.977715
     31          7           0        2.624823    0.160387    1.925185
     32          7           0        1.708760    0.467110    2.481724
     33          6           0        7.601922   -1.149033   -0.343340
     34          8           0        8.632260   -0.900493    0.239811
     35          8           0        7.528472   -1.740351   -1.547116
     36          1           0        8.438086   -1.920358   -1.842161
     37          6           0       -7.753138   -1.675525    0.080264
     38          8           0       -8.837286   -1.305789    0.469163
     39          8           0       -7.500025   -2.888717   -0.437926
     40          1           0       -8.335183   -3.388097   -0.438220
 ---------------------------------------------------------------------

 SCF Done:  E(RB3LYP) =  -2020.53884206     A.U. after    1 cycles

 The electronic state is 1-A.
 Alpha  occ. eigenvalues --  -89.19806 -24.82641 -24.82353 -24.82170 -19.30837
 Alpha  occ. eigenvalues --  -19.30771 -19.25306 -19.25240 -19.22732 -19.22545
 Alpha  occ. eigenvalues --  -19.22479 -14.66890 -14.66885 -14.63932 -14.63846
 Alpha  occ. eigenvalues --  -10.52728 -10.43863 -10.43799 -10.42636 -10.42569
 Alpha  occ. eigenvalues --  -10.36757 -10.36705 -10.35853 -10.35788 -10.35668
 Alpha  occ. eigenvalues --  -10.35606 -10.34473 -10.34403 -10.34369 -10.34290
 Alpha  occ. eigenvalues --   -8.22095  -6.18542  -6.18538  -6.18498  -1.40214
 Alpha  occ. eigenvalues --   -1.31880  -1.31837  -1.31570  -1.31458  -1.21871
 Alpha  occ. eigenvalues --   -1.21806  -1.20726  -1.13007  -1.12941  -1.07709
 Alpha  occ. eigenvalues --   -1.07088  -1.05584  -1.05496  -0.97789  -0.97717
 Alpha  occ. eigenvalues --   -0.91074  -0.91014  -0.86650  -0.86596  -0.81674
 Alpha  occ. eigenvalues --   -0.77863  -0.77802  -0.75691  -0.75633  -0.72578
 Alpha  occ. eigenvalues --   -0.71418  -0.71416  -0.68011  -0.67776  -0.67160
 Alpha  occ. eigenvalues --   -0.67116  -0.67024  -0.66984  -0.65449  -0.65181
 Alpha  occ. eigenvalues --   -0.63867  -0.63677  -0.62883  -0.60243  -0.60084
 Alpha  occ. eigenvalues --   -0.59843  -0.59752  -0.58389  -0.57891  -0.57525
 Alpha  occ. eigenvalues --   -0.57439  -0.56545  -0.56482  -0.55713  -0.55590
 Alpha  occ. eigenvalues --   -0.54755  -0.54735  -0.54143  -0.53838  -0.53292
 Alpha  occ. eigenvalues --   -0.52057  -0.51905  -0.51676  -0.51518  -0.50818
 Alpha  occ. eigenvalues --   -0.50745  -0.49529  -0.49388  -0.49257  -0.43452
 Alpha  occ. eigenvalues --   -0.43336  -0.42987  -0.42759  -0.41624  -0.41561
 Alpha  occ. eigenvalues --   -0.40850  -0.40755  -0.39745  -0.39412  -0.39167
 Alpha  occ. eigenvalues --   -0.39054  -0.38490  -0.35767
 Alpha virt. eigenvalues --   -0.24422  -0.24373  -0.21874  -0.21280  -0.15446
 Alpha virt. eigenvalues --   -0.15361  -0.14870  -0.14828  -0.06440  -0.06378
 Alpha virt. eigenvalues --   -0.04503  -0.04350  -0.01444  -0.01349   0.00365

 Mulliken atomic charges:
              1
     1  C   -0.025243
     2  C    0.228402
     3  C   -0.043403
     4  C   -0.096736
     5  C    0.059977
     6  C   -0.106340
     7  H    0.217065
     8  H    0.165202
     9  H    0.176172
    10  H    0.173105
    11  N    0.142809
    12  N   -0.022664
    13  S    1.168702
    14  O   -0.604389
    15  O   -0.589766
    16  O   -0.587563
    17  C    0.572762
    18  F   -0.267116
    19  F   -0.236286
    20  F   -0.227129
    21  H    0.211550
    22  C   -0.026259
    23  C    0.228843
    24  C   -0.106622
    25  C   -0.040775
    26  C    0.060200
    27  H    0.172926
    28  C   -0.097440
    29  H    0.164454
    30  H    0.175981
    31  N    0.134238
    32  N   -0.016993
    33  C    0.585137
    34  O   -0.431236
    35  O   -0.484407
    36  H    0.351752
    37  C    0.585014
    38  O   -0.431059
    39  O   -0.484596
    40  H    0.351733
 Sum of Mulliken atomic charges =   1.00000

 Dipole moment (field-independent basis, Debye):
    X=             -1.1976    Y=             -0.1869    Z=              4.0506  Tot=              4.2281
 Quadrupole moment (field-independent basis, Debye-Ang):
   XX=            -11.1290   YY=           -146.5454   ZZ=           -152.2914
   XY=             -7.4724   XZ=              2.6159   YZ=             10.2019

  Exact polarizability: 413.870   9.042 179.846 -18.029  40.556 162.337
 Approx polarizability: 576.362  18.374 322.894 -38.119  93.279 289.612

                     1                      2                      3
                     A                      A                      A
 Frequencies --     6.2289                10.6867                16.2889
 Red. masses --    11.0273                10.5622                10.9174
 Frc consts  --     0.0003                 0.0007                 0.0017
 IR Inten    --     0.3492                 0.0796                 1.7618

                     4                      5                      6
                     A                      A                      A
 Frequencies --    19.8898                23.8065                32.4992
 Red. masses --    10.1217                 6.2594                 8.3027
 Frc consts  --     0.0024                 0.0021                 0.0052
 IR Inten    --     0.5641                 0.7383                 3.4744

                     7                      8                      9
                     A                      A                      A
 Frequencies --    42.4649                52.7997                58.3537
 Red. masses --    14.0275                12.8445                10.4001
 Frc consts  --     0.0149                 0.0211                 0.0209
 IR Inten    --     1.8817                 2.2360                 4.3948

                    10                     11                     12
                     A                      A                      A
 Frequencies --    61.5852                68.0516                71.6308
 Red. masses --     9.4131                 6.3632                 6.8455
 Frc consts  --     0.0210                 0.0174                 0.0207
 IR Inten    --     3.8590                 1.8883                 0.9308

                    13                     14                     15
                     A                      A                      A
 Frequencies --    77.7865                82.0771                86.8272
 Red. masses --     8.4844                 7.5672                 8.7584
 Frc consts  --     0.0302                 0.0300                 0.0389
 IR Inten    --     3.3457                 1.0939                 4.5255

                    16                     17                     18
                     A                      A                      A
 Frequencies --   102.8455               113.4227               174.9953
 Red. masses --    15.0050                13.5563                10.9402
 Frc consts  --     0.0935                 0.1028                 0.1974
 IR Inten    --     0.7526                80.8379                36.3471

                    19                     20                     21
                     A                      A                      A
 Frequencies --   180.8252               199.8448               215.0529
 Red. masses --    10.1669                15.2343                14.6043
 Frc consts  --     0.1959                 0.3585                 0.3979
 IR Inten    --     3.2905                 6.4507                 3.2645

                    22                     23                     24
                     A                      A                      A
 Frequencies --   218.1323               219.8961               239.1062
 Red. masses --     6.9537                 6.8153                 7.2321
 Frc consts  --     0.1949                 0.1942                 0.2436
 IR Inten    --     2.2879                 0.9659                 3.8897

                    25                     26                     27
                     A                      A                      A
 Frequencies --   242.1150               307.4906               323.7439
 Red. masses --     7.3462                17.6989                11.3027
 Frc consts  --     0.2537                 0.9860                 0.6980
 IR Inten    --     3.4805                 1.8819                30.7430

                    28                     29                     30
                     A                      A                      A
 Frequencies --   324.4330               333.7276               343.8910
 Red. masses --    11.2691                17.4027                17.3959
 Frc consts  --     0.6989                 1.1420                 1.2121
 IR Inten    --     8.1155                 1.4663                15.4135

                    31                     32                     33
                     A                      A                      A
 Frequencies --   404.0618               405.2858               422.7614
 Red. masses --     3.0508                 3.0318                 4.3668
 Frc consts  --     0.2935                 0.2934                 0.4598
 IR Inten    --     1.1467                 1.3926                 5.6337

                    34                     35                     36
                     A                      A                      A
 Frequencies --   424.7191               476.0024               476.9833
 Red. masses --     4.3043                 9.0549                 9.0001
 Frc consts  --     0.4575                 1.2088                 1.2064
 IR Inten    --     5.5369                 4.4110                 7.4561

                    37                     38                     39
                     A                      A                      A
 Frequencies --   492.4529               503.7711               540.2653
 Red. masses --    17.5159                17.5386                 6.1965
 Frc consts  --     2.5027                 2.6225                 1.0656
 IR Inten    --    14.7242                59.2204                 7.1605

                    40                     41                     42
                     A                      A                      A
 Frequencies --   541.0305               550.2652               550.9830
 Red. masses --     6.1617                 5.6715                 5.5144
 Frc consts  --     1.0627                 1.0118                 0.9863
 IR Inten    --     4.3213                21.0200                16.5976

                    43                     44                     45
                     A                      A                      A
 Frequencies --   554.8054               557.5274               562.7723
 Red. masses --     9.2060                 7.1996                10.3862
 Frc consts  --     1.6696                 1.3185                 1.9381
 IR Inten    --     7.4369                21.6379                 1.6816

                    46                     47                     48
                     A                      A                      A
 Frequencies --   565.2661               608.8463               609.1274
 Red. masses --    15.0622                 1.4996                 1.4559
 Frc consts  --     2.8356                 0.3275                 0.3183
 IR Inten    --    17.3978                81.7264                15.2899

                    49                     50                     51
                     A                      A                      A
 Frequencies --   619.0915               646.8799               647.6508
 Red. masses --    14.6294                 7.3694                 7.4170
 Frc consts  --     3.3036                 1.8169                 1.8330
 IR Inten    --   112.9595                 4.5475                 1.7632

                    52                     53                     54
                     A                      A                      A
 Frequencies --   690.1248               690.9938               699.0811
 Red. masses --     2.6864                 2.7117                 4.2387
 Frc consts  --     0.7538                 0.7629                 1.2205
 IR Inten    --    65.6545                79.3447                99.6318

                    55                     56                     57
                     A                      A                      A
 Frequencies --   699.6189               757.1148               769.1861
 Red. masses --     4.2450                18.2979                 3.4024
 Frc consts  --     1.2242                 6.1798                 1.1860
 IR Inten    --    63.0260                 1.9757                49.4740

                    58                     59                     60
                     A                      A                      A
 Frequencies --   770.3164               819.2630               819.6511
 Red. masses --     3.4391                 6.0020                 6.0071
 Frc consts  --     1.2024                 2.3735                 2.3778
 IR Inten    --    52.2936                 3.6450                 4.7806

                    61                     62                     63
                     A                      A                      A
 Frequencies --   852.7764               855.0008               898.1430
 Red. masses --     1.3245                 1.3394                 1.5981
 Frc consts  --     0.5675                 0.5769                 0.7596
 IR Inten    --     3.0648                 4.2076                23.4486

                    64                     65                     66
                     A                      A                      A
 Frequencies --   902.0576               989.5435              1004.2492
 Red. masses --     1.5685                15.2375                 1.3193
 Frc consts  --     0.7520                 8.7909                 0.7839
 IR Inten    --    20.6261               181.9266                 0.2433

                    67                     68                     69
                     A                      A                      A
 Frequencies --  1005.1941              1022.4060              1029.7303
 Red. masses --     1.3213                 1.3058                 3.0278
 Frc consts  --     0.7866                 0.8042                 1.8916
 IR Inten    --     0.3239                 2.2107                 8.1177

                    70                     71                     72
                     A                      A                      A
 Frequencies --  1029.7972              1031.0347              1125.5064
 Red. masses --     3.0782                 1.3412                 4.2600
 Frc consts  --     1.9233                 0.8400                 3.1795
 IR Inten    --     1.3476                 3.9928               339.4507

                    73                     74                     75
                     A                      A                      A
 Frequencies --  1128.1723              1130.4048              1130.7893
 Red. masses --     5.4909                 3.4596                 3.1958
 Frc consts  --     4.1176                 2.6046                 2.4077
 IR Inten    --   165.4379                28.1175                33.8111

                    76                     77                     78
                     A                      A                      A
 Frequencies --  1139.3081              1139.9109              1178.0665
 Red. masses --     1.3954                 1.4132                10.2416
 Frc consts  --     1.0672                 1.0819                 8.3745
 IR Inten    --    31.5499                 9.6170                66.6611

                    79                     80                     81
                     A                      A                      A
 Frequencies --  1189.3454              1197.4699              1198.1697
 Red. masses --    10.3265                 1.4867                 1.5289
 Frc consts  --     8.6064                 1.2560                 1.2932
 IR Inten    --   119.1078                88.5283               319.0090

                    82                     83                     84
                     A                      A                      A
 Frequencies --  1215.4662              1218.8068              1232.9110
 Red. masses --     1.6561                 1.5391                 7.7316
 Frc consts  --     1.4415                 1.3471                 6.9244
 IR Inten    --   150.3933                39.2316                57.3307

                    85                     86                     87
                     A                      A                      A
 Frequencies --  1253.1121              1260.7721              1336.2996
 Red. masses --    10.7662                13.0506                 1.2894
 Frc consts  --     9.9608                12.2223                 1.3566
 IR Inten    --   423.0651               382.4530                 3.6505

                    88                     89                     90
                     A                      A                      A
 Frequencies --  1336.6067              1372.8927              1373.2686
 Red. masses --     1.2897                11.4629                11.5328
 Frc consts  --     1.3575                12.7296                12.8143
 IR Inten    --     5.7436                25.6102                24.9303

                    91                     92                     93
                     A                      A                      A
 Frequencies --  1398.2636              1398.7927              1454.6004
 Red. masses --     2.8451                 2.8512                 3.0867
 Frc consts  --     3.2774                 3.2869                 3.8480
 IR Inten    --   210.2383               113.6276                28.3224

                    94                     95                     96
                     A                      A                      A
 Frequencies --  1454.9539              1507.4911              1508.1613
 Red. masses --     3.0763                 2.1446                 2.1335
 Frc consts  --     3.8369                 2.8714                 2.8591
 IR Inten    --    52.9071                 9.1789                10.5824

                    97                     98                     99
                     A                      A                      A
 Frequencies --  1602.8923              1603.0946              1641.9402
 Red. masses --     7.2916                 7.2727                 5.4978
 Frc consts  --    11.0379                11.0119                 8.7328
 IR Inten    --    21.8447                 0.5686                62.3451

                   100                    101                    102
                     A                      A                      A
 Frequencies --  1642.0259              1834.8510              1835.3164
 Red. masses --     5.4807                11.0462                11.0519
 Frc consts  --     8.7066                21.9111                21.9336
 IR Inten    --    20.6738               280.0866               210.2056

                   103                    104                    105
                     A                      A                      A
 Frequencies --  2346.8567              2353.6478              3203.4093
 Red. masses --    13.9417                13.9435                 1.0965
 Frc consts  --    45.2416                45.5097                 6.6293
 IR Inten    --    89.6092               101.1295               211.8896

                   106                    107                    108
                     A                      A                      A
 Frequencies --  3213.6659              3226.5520              3226.6940
 Red. masses --     1.0960                 1.0905                 1.0906
 Frc consts  --     6.6688                 6.6890                 6.6901
 IR Inten    --   133.5808                 2.5487                 2.9737

                   109                    110                    111
                     A                      A                      A
 Frequencies --  3237.9544              3238.0956              3243.6490
 Red. masses --     1.0963                 1.0963                 1.0935
 Frc consts  --     6.7720                 6.7728                 6.7787
 IR Inten    --     8.6149                 8.1323                 5.6366

                   112                    113                    114
                     A                      A                      A
 Frequencies --  3244.1553              3753.1346              3753.6444
 Red. masses --     1.0933                 1.0647                 1.0647
 Frc consts  --     6.7792                 8.8359                 8.8383
 IR Inten    --     5.0042               169.3059               155.1190

 - Thermochemistry -
 -------------------
 Temperature   298.150 Kelvin.  Pressure   1.00000 Atm.
 Atom     1 has atomic number  6 and mass  12.00000

 Molecular mass:   447.02223 amu.
 Principal axes and moments of inertia in atomic units:
                           1         2         3
     Eigenvalues --  4860.11757********************
           X            1.00000  -0.00068   0.00043
           Y            0.00063   0.99414   0.10805
           Z           -0.00050  -0.10805   0.99414
 This molecule is an asymmetric top.
 Rotational symmetry number  1.
 Warning -- assumption of classical behavior for rotation
           may cause significant error
 Rotational temperatures (Kelvin)      0.01782     0.00216     0.00212
 Rotational constants (GHZ):           0.37134     0.04502     0.04418
 Zero-point vibrational energy     674858.0 (Joules/Mol)
                                  161.29494 (Kcal/Mol)
 Warning -- explicit consideration of  49 degrees of freedom as
           vibrations may cause significant error
 Vibrational temperatures:      8.96    15.38    23.44    28.62    34.25
          (Kelvin)             46.76    61.10    75.97    83.96    88.61
                               97.91   103.06   111.92   118.09   124.92
                              147.97   163.19   251.78   260.17   287.53
                              309.41   313.84   316.38   344.02   348.35
                              442.41   465.79   466.79   480.16   494.78
                              581.35   583.12   608.26   611.08   684.86
                              686.27   708.53   724.81   777.32   778.42
                              791.71   792.74   798.24   802.16   809.70
                              813.29   875.99   876.40   890.73   930.71
                              931.82   992.93   994.18  1005.82  1006.59
                             1089.32  1106.69  1108.31  1178.74  1179.29
                             1226.95  1230.15  1292.23  1297.86  1423.73
                             1444.89  1446.25  1471.01  1481.55  1481.65
                             1483.43  1619.35  1623.19  1626.40  1626.95
                             1639.21  1640.08  1694.97  1711.20  1722.89
                             1723.90  1748.78  1753.59  1773.88  1802.95
                             1813.97  1922.63  1923.08  1975.28  1975.82
                             2011.79  2012.55  2092.84  2093.35  2168.94
                             2169.90  2306.20  2306.49  2362.38  2362.51
                             2639.94  2640.61  3376.60  3386.37  4608.99
                             4623.74  4642.28  4642.49  4658.69  4658.89
                             4666.88  4667.61  5399.92  5400.65

 Zero-point correction=                           0.257040 (Hartree/Particle)
 Thermal correction to Energy=                    0.286294
 Thermal correction to Enthalpy=                  0.287238
 Thermal correction to Gibbs Free Energy=         0.187856
 Sum of electronic and zero-point Energies=          -2020.281802
 Sum of electronic and thermal Energies=             -2020.252548
 Sum of electronic and thermal Enthalpies=           -2020.251604
 Sum of electronic and thermal Free Energies=        -2020.350986

                     E (Thermal)             CV                S
                      KCal/Mol        Cal/Mol-Kelvin    Cal/Mol-Kelvin
 Total                  179.652            102.922            209.168
 Electronic               0.000              0.000              0.000
 Translational            0.889              2.981             44.182
 Rotational               0.889              2.981             37.318
 Vibrational            177.875             96.961            127.668
 Vibration     1          0.593              1.987              8.952
 Vibration     2          0.593              1.987              7.879
 Vibration     3          0.593              1.986              7.042
 Vibration     4          0.593              1.986              6.645
 Vibration     5          0.593              1.985              6.288
 Vibration     6          0.594              1.983              5.671
 Vibration     7          0.595              1.980              5.141
 Vibration     8          0.596              1.976              4.710
 Vibration     9          0.596              1.974              4.512
 Vibration    10          0.597              1.973              4.406
 Vibration    11          0.598              1.969              4.209
 Vibration    12          0.598              1.968              4.108
 Vibration    13          0.599              1.964              3.946
 Vibration    14          0.600              1.961              3.841
 Vibration    15          0.601              1.958              3.730
 Vibration    16          0.605              1.947              3.400
 Vibration    17          0.607              1.938              3.209
 Vibration    18          0.627              1.873              2.381
 Vibration    19          0.630              1.866              2.320
 Vibration    20          0.638              1.840              2.135
 Vibration    21          0.645              1.818              2.000
 Vibration    22          0.646              1.813              1.975
 Vibration    23          0.647              1.811              1.960
 Vibration    24          0.657              1.781              1.810
 Vibration    25          0.658              1.776              1.787
 Vibration    26          0.697              1.659              1.376
 Vibration    27          0.708              1.628              1.291
 Vibration    28          0.709              1.627              1.288
 Vibration    29          0.715              1.608              1.242
 Vibration    30          0.723              1.588              1.194
 Vibration    31          0.769              1.461              0.948
 Vibration    32          0.770              1.459              0.943
 Vibration    33          0.785              1.421              0.883
 Vibration    34          0.787              1.416              0.876
 Vibration    35          0.833              1.303              0.721
 Vibration    36          0.834              1.301              0.718
 Vibration    37          0.848              1.267              0.677
 Vibration    38          0.859              1.242              0.649
 Vibration    39          0.895              1.161              0.565
 Vibration    40          0.896              1.159              0.563
 Vibration    41          0.906              1.139              0.544
 Vibration    42          0.906              1.138              0.542
 Vibration    43          0.910              1.129              0.534
 Vibration    44          0.913              1.123              0.529
 Vibration    45          0.919              1.112              0.518
 Vibration    46          0.921              1.106              0.513
 Vibration    47          0.968              1.013              0.435
 Vibration    48          0.968              1.012              0.434
 Vibration    49          0.979              0.992              0.418

 Normal termination of Gaussian 09 at Mon Jan 10 11:34:24 2005.
