 Gaussian 09, Revision B.01,
 Gaussian 09:  EM64L-G09RevB.01 12-Aug-2010

 ------------------------------------------------
 #p Temperature=298.15 opt freq rb3lyp/6-31G(d,p)
 ------------------------------------------------

 -------------------------------
 x2-Ph-N2-OTf-v2-RB3LYP-6-31G_dp
 -------------------------------
 Symbolic Z-matrix:
 Charge =  1 Multiplicity = 1

 SCF Done:  E(RB3LYP) =  -1643.39825164     A.U. after   18 cycles
 SCF Done:  E(RB3LYP) =  -1643.35800829     A.U. after   16 cycles
 SCF Done:  E(RB3LYP) =  -1643.39828853     A.U. after   16 cycles
 SCF Done:  E(RB3LYP) =  -1643.39762880     A.U. after   18 cycles
 SCF Done:  E(RB3LYP) =  -1643.39839206     A.U. after   18 cycles
 SCF Done:  E(RB3LYP) =  -1643.39848299     A.U. after   12 cycles
 SCF Done:  E(RB3LYP) =  -1643.39859394     A.U. after   12 cycles
 SCF Done:  E(RB3LYP) =  -1643.39862421     A.U. after   18 cycles
 SCF Done:  E(RB3LYP) =  -1643.39868062     A.U. after   12 cycles
 SCF Done:  E(RB3LYP) =  -1643.39870994     A.U. after   12 cycles
 SCF Done:  E(RB3LYP) =  -1643.39897465     A.U. after    8 cycles
 SCF Done:  E(RB3LYP) =  -1643.39897484     A.U. after    8 cycles
 SCF Done:  E(RB3LYP) =  -1643.39897501     A.U. after    7 cycles
 SCF Done:  E(RB3LYP) =  -1643.39897504     A.U. after    7 cycles
 SCF Done:  E(RB3LYP) =  -1643.39897507     A.U. after    7 cycles
 SCF Done:  E(RB3LYP) =  -1643.39897503     A.U. after    7 cycles
 SCF Done:  E(RB3LYP) =  -1643.39897496     A.U. after    7 cycles
 SCF Done:  E(RB3LYP) =  -1643.39897493     A.U. after    7 cycles
 SCF Done:  E(RB3LYP) =  -1643.39897486     A.U. after    7 cycles
 Optimization completed.
    -- Stationary point found.
 Normal termination of Gaussian 09 at Fri Feb 25 08:40:00 2005.

 ----------------------------------------------------------------------
 #P Geom=AllCheck Guess=TCheck SCRF=Check GenChk RB3LYP/6-31G(d,p) Freq
 ----------------------------------------------------------------------

 x2-Ph-N2-OTf-v2-RB3LYP-6-31G_dp
 -------------------------------
 Redundant internal coordinates taken from checkpoint file:
 /home/ubuntu/g09/Gau-2173.chk
 Charge =  1 Multiplicity = 1

                         Standard orientation:
 ---------------------------------------------------------------------
 Center     Atomic      Atomic             Coordinates (Angstroms)
 Number     Number       Type             X           Y           Z
 ---------------------------------------------------------------------
      1          6           0       -3.874446   -0.800736   -1.014312
      2          6           0       -4.033467   -0.760559    0.380894
      3          6           0       -5.242984   -1.049609    1.045336
      4          6           0       -6.332514   -1.395508    0.261898
      5          6           0       -6.206242   -1.446974   -1.133639
      6          6           0       -4.992004   -1.152448   -1.762380
      7          1           0       -2.916144   -0.539706   -1.450328
      8          1           0       -5.307283   -1.000880    2.126472
      9          1           0       -7.280820   -1.624268    0.735170
     10          1           0       -7.068059   -1.717553   -1.735276
     11          1           0       -4.914045   -1.191435   -2.843177
     12          7           0       -2.954747   -0.429837    1.183765
     13          7           0       -2.145351   -0.193598    1.914548
     14         16           0        0.059090    0.631751   -0.367265
     15          8           0        0.198412   -0.261454    0.822668
     16          8           0        1.212715    0.569583   -1.290805
     17          8           0       -1.287658    0.592359   -0.980708
     18          6           0        0.156176    2.341158    0.358503
     19          9           0        1.371089    2.526002    0.915714
     20          9           0       -0.773367    2.493246    1.313048
     21          9           0       -0.025455    3.271478   -0.577323
     22          1           0        2.207549   -0.947053    0.562976
     23          6           0        3.215674   -1.312589    0.377109
     24          6           0        4.190079   -0.496173   -0.225772
     25          6           0        3.611638   -2.603214    0.708220
     26          6           0        5.509618   -0.905273   -0.504706
     27          6           0        4.912425   -3.044102    0.442131
     28          1           0        2.894630   -3.269037    1.175325
     29          6           0        5.857143   -2.201837   -0.161601
     30          1           0        6.214519   -0.226455   -0.971193
     31          1           0        5.197875   -4.056994    0.707722
     32          1           0        6.861249   -2.558337   -0.361755
     33          7           0        3.853459    0.799965   -0.558147
     34          7           0        3.589547    1.847817   -0.821876
 ---------------------------------------------------------------------

 SCF Done:  E(RB3LYP) =  -1643.39897486     A.U. after    1 cycles

 The electronic state is 1-A.
 Alpha  occ. eigenvalues --  -89.19052 -24.81905 -24.81756 -24.81413 -19.21911
 Alpha  occ. eigenvalues --  -19.21698 -19.21615 -14.67224 -14.66061 -14.63832
 Alpha  occ. eigenvalues --  -14.62961 -10.51992 -10.42234 -10.41761 -10.36664
 Alpha  occ. eigenvalues --  -10.36221 -10.35470 -10.34970 -10.34968 -10.34526
 Alpha  occ. eigenvalues --  -10.34374 -10.34003 -10.33961 -10.33566  -8.21327
 Alpha  occ. eigenvalues --   -6.17776  -6.17768  -6.17731  -1.39506  -1.32090
 Alpha  occ. eigenvalues --   -1.30983  -1.30844  -1.30755  -1.19933  -1.06901
 Alpha  occ. eigenvalues --   -1.06297  -1.05493  -1.04743  -0.97170  -0.96581
 Alpha  occ. eigenvalues --   -0.90801  -0.90363  -0.84464  -0.83986  -0.80927
 Alpha  occ. eigenvalues --   -0.77219  -0.76785  -0.72045  -0.71793  -0.71465
 Alpha  occ. eigenvalues --   -0.67431  -0.67228  -0.67096  -0.66654  -0.66330
 Alpha  occ. eigenvalues --   -0.65777  -0.65381  -0.65030  -0.63395  -0.62837
 Alpha  occ. eigenvalues --   -0.62133  -0.59528  -0.59005  -0.58558  -0.58143
 Alpha  occ. eigenvalues --   -0.57638  -0.57515  -0.55017  -0.54853  -0.53791
 Alpha  occ. eigenvalues --   -0.53495  -0.52641  -0.52160  -0.51789  -0.51274
 Alpha  occ. eigenvalues --   -0.51181  -0.50877  -0.50636  -0.50031  -0.49359
 Alpha  occ. eigenvalues --   -0.48819  -0.42311  -0.42015  -0.41839  -0.41377
 Alpha  occ. eigenvalues --   -0.40640  -0.40292  -0.38943  -0.38635  -0.37727
 Alpha  occ. eigenvalues --   -0.35031
 Alpha virt. eigenvalues --   -0.23789  -0.23192  -0.21816  -0.20769  -0.15198
 Alpha virt. eigenvalues --   -0.14845  -0.12127  -0.11690  -0.04613  -0.04314
 Alpha virt. eigenvalues --    0.00935   0.01140   0.01371   0.01521   0.01748

 Mulliken atomic charges:
              1
     1  C   -0.017945
     2  C    0.217527
     3  C   -0.032437
     4  C   -0.089923
     5  C   -0.043756
     6  C   -0.095652
     7  H    0.210233
     8  H    0.159159
     9  H    0.152690
    10  H    0.152734
    11  H    0.155129
    12  N    0.140637
    13  N   -0.031912
    14  S    1.173611
    15  O   -0.615257
    16  O   -0.601460
    17  O   -0.591810
    18  C    0.574754
    19  F   -0.261171
    20  F   -0.246370
    21  F   -0.225177
    22  H    0.214647
    23  C    0.003751
    24  C    0.221356
    25  C   -0.107687
    26  C   -0.033140
    27  C   -0.041168
    28  H    0.152373
    29  C   -0.089925
    30  H    0.163244
    31  H    0.153085
    32  H    0.154719
    33  N    0.144876
    34  N   -0.019734
 Sum of Mulliken atomic charges =   1.00000

 Dipole moment (field-independent basis, Debye):
    X=              0.2810    Y=             -7.4635    Z=              1.4864  Tot=              7.6153
 Quadrupole moment (field-independent basis, Debye-Ang):
   XX=             31.6957   YY=           -117.5733   ZZ=           -128.9847
   XY=              2.1660   XZ=             -5.5276   YZ=             -1.7657

  Exact polarizability: 273.394   7.317 173.070   3.582 -14.069 150.187
 Approx polarizability: 391.803   9.973 308.267  17.700 -33.757 283.684

                     1                      2                      3
                     A                      A                      A
 Frequencies --    10.1823                12.9514                22.0565
 Red. masses --     7.2107                 8.9433                 5.2273
 Frc consts  --     0.0004                 0.0009                 0.0015
 IR Inten    --     3.6960                 0.0088                 3.6094

                     4                      5                      6
                     A                      A                      A
 Frequencies --    26.9400                29.2591                35.7562
 Red. masses --     4.6014                10.3796                 7.9995
 Frc consts  --     0.0020                 0.0052                 0.0060
 IR Inten    --     0.3009                 3.2187                 2.6812

                     7                      8                      9
                     A                      A                      A
 Frequencies --    45.3776                53.5335                72.6965
 Red. masses --    11.3458                13.3333                 7.2422
 Frc consts  --     0.0138                 0.0225                 0.0225
 IR Inten    --     0.5057                 1.8030                 1.6789

                    10                     11                     12
                     A                      A                      A
 Frequencies --    84.4191                89.2794               104.9941
 Red. masses --     7.7557                 6.9641                10.6091
 Frc consts  --     0.0326                 0.0327                 0.0689
 IR Inten    --     6.6919                 3.8043                25.8520

                    13                     14                     15
                     A                      A                      A
 Frequencies --   126.1941               144.5935               151.8432
 Red. masses --     8.3062                 7.4140                 5.8747
 Frc consts  --     0.0779                 0.0913                 0.0798
 IR Inten    --    38.9557                 7.4074                 0.4857

                    16                     17                     18
                     A                      A                      A
 Frequencies --   172.8558               198.0830               211.5773
 Red. masses --     7.6240                16.7368                16.7881
 Frc consts  --     0.1342                 0.3869                 0.4428
 IR Inten    --     4.3726                 2.4909                 5.2998

                    19                     20                     21
                     A                      A                      A
 Frequencies --   229.9741               305.2647               332.6110
 Red. masses --     9.8575                17.7396                17.5401
 Frc consts  --     0.3072                 0.9740                 1.1433
 IR Inten    --    15.4999                 0.8126                 2.0122

                    22                     23                     24
                     A                      A                      A
 Frequencies --   343.0691               390.5441               392.1737
 Red. masses --    17.2955                 4.2030                 4.1285
 Frc consts  --     1.1994                 0.3777                 0.3741
 IR Inten    --    13.4247                 0.0733                 0.3308

                    25                     26                     27
                     A                      A                      A
 Frequencies --   401.1741               404.7195               461.1746
 Red. masses --     3.0454                 3.1177                 8.6418
 Frc consts  --     0.2888                 0.3009                 1.0829
 IR Inten    --     0.6788                 0.6873                 6.8754

                    28                     29                     30
                     A                      A                      A
 Frequencies --   463.2532               495.3325               503.8443
 Red. masses --     8.6616                17.2058                17.1507
 Frc consts  --     1.0952                 2.4872                 2.5652
 IR Inten    --     2.5606                15.7970                51.2266

                    31                     32                     33
                     A                      A                      A
 Frequencies --   521.2416               533.4961               556.5152
 Red. masses --     8.1553                 7.5958                 5.7843
 Frc consts  --     1.3055                 1.2738                 1.0555
 IR Inten    --     1.6196                 1.8597                 9.6125

                    34                     35                     36
                     A                      A                      A
 Frequencies --   558.4465               559.4490               564.8729
 Red. masses --     6.7028                13.2489                17.5061
 Frc consts  --     1.2316                 2.4432                 3.2911
 IR Inten    --     6.1924                 9.7393                24.1049

                    37                     38                     39
                     A                      A                      A
 Frequencies --   618.3802               626.7677               628.1233
 Red. masses --    16.7321                 6.8514                 7.1240
 Frc consts  --     3.7697                 1.5858                 1.6560
 IR Inten    --   127.8485                 3.8188                 6.8792

                    40                     41                     42
                     A                      A                      A
 Frequencies --   670.6475               672.5114               756.5889
 Red. masses --     2.5962                 2.6029                18.2386
 Frc consts  --     0.6880                 0.6936                 6.1512
 IR Inten    --    21.1879                17.4078                 1.0970

                    43                     44                     45
                     A                      A                      A
 Frequencies --   771.7197               772.8617               775.2522
 Red. masses --     6.0130                 3.9195                 1.6118
 Frc consts  --     2.1099                 1.3794                 0.5707
 IR Inten    --     2.6541                 7.3103                39.5464

                    46                     47                     48
                     A                      A                      A
 Frequencies --   776.3052               853.2634               857.9757
 Red. masses --     1.4119                 1.2384                 1.2370
 Frc consts  --     0.5013                 0.5312                 0.5365
 IR Inten    --    46.4840                 0.4791                 0.6989

                    49                     50                     51
                     A                      A                      A
 Frequencies --   971.1833               973.1287               991.0706
 Red. masses --     1.3061                 1.3303                11.1482
 Frc consts  --     0.7258                 0.7422                 6.4516
 IR Inten    --     1.3099                 0.1401               171.7382

                    52                     53                     54
                     A                      A                      A
 Frequencies --  1005.7989              1009.6271              1011.3062
 Red. masses --     1.4482                 4.5796                 4.2966
 Frc consts  --     0.8632                 2.7504                 2.5891
 IR Inten    --     0.3939                 6.5923                 5.8676

                    55                     56                     57
                     A                      A                      A
 Frequencies --  1014.8880              1035.1587              1038.0028
 Red. masses --     1.5229                 1.3419                 1.3332
 Frc consts  --     0.9242                 0.8472                 0.8463
 IR Inten    --     8.6353                 0.2215                 1.7254

                    58                     59                     60
                     A                      A                      A
 Frequencies --  1043.7863              1044.7249              1119.1488
 Red. masses --     2.3331                 2.3113                 1.5484
 Frc consts  --     1.4977                 1.4863                 1.1426
 IR Inten    --     0.4204                 2.7001                33.7379

                    61                     62                     63
                     A                      A                      A
 Frequencies --  1125.5668              1131.0112              1140.8721
 Red. masses --     1.6397                 3.6296                 3.5534
 Frc consts  --     1.2239                 2.7356                 2.7250
 IR Inten    --     6.1439               146.5314               105.1578

                    64                     65                     66
                     A                      A                      A
 Frequencies --  1185.2646              1197.6959              1201.5598
 Red. masses --    13.7547                12.9713                 1.1104
 Frc consts  --    11.3850                10.9629                 0.9446
 IR Inten    --   105.3329               101.6495                 7.8367

                    67                     68                     69
                     A                      A                      A
 Frequencies --  1202.4305              1213.9131              1221.0214
 Red. masses --     1.1059                 1.3991                 1.2526
 Frc consts  --     0.9420                 1.2147                 1.1003
 IR Inten    --     2.6898                38.9690                24.7943

                    70                     71                     72
                     A                      A                      A
 Frequencies --  1223.2349              1254.6177              1258.0465
 Red. masses --     6.2204                12.1332                12.7870
 Frc consts  --     5.4839                11.2525                11.9237
 IR Inten    --    73.3614               573.1842               339.3009

                    73                     74                     75
                     A                      A                      A
 Frequencies --  1354.7166              1360.0430              1379.4517
 Red. masses --     1.5350                 1.7006                 4.3028
 Frc consts  --     1.6598                 1.8533                 4.8241
 IR Inten    --     4.2854                 2.0520                15.6491

                    76                     77                     78
                     A                      A                      A
 Frequencies --  1380.9249              1494.8528              1496.5339
 Red. masses --     3.3024                 2.3345                 2.3411
 Frc consts  --     3.7104                 3.0735                 3.0892
 IR Inten    --    28.1173                29.1831                18.4583

                    79                     80                     81
                     A                      A                      A
 Frequencies --  1501.7527              1506.0035              1616.4384
 Red. masses --     1.9251                 1.8799                 4.9662
 Frc consts  --     2.5580                 2.5121                 7.6452
 IR Inten    --     2.8661                 0.2620                14.3619

                    82                     83                     84
                     A                      A                      A
 Frequencies --  1617.2987              1626.6353              1627.3628
 Red. masses --     5.2351                 5.1252                 5.1372
 Frc consts  --     8.0677                 7.9899                 8.0158
 IR Inten    --     3.6285                82.9111                63.3318

                    85                     86                     87
                     A                      A                      A
 Frequencies --  2338.4577              2376.7637              3164.8085
 Red. masses --    13.9372                13.9431                 1.0992
 Frc consts  --    44.9040                46.4068                 6.4864
 IR Inten    --    79.4600               190.4214               325.2395

                    88                     89                     90
                     A                      A                      A
 Frequencies --  3211.0564              3211.7899              3220.8427
 Red. masses --     1.0891                 1.0892                 1.0923
 Frc consts  --     6.6162                 6.6201                 6.6760
 IR Inten    --     5.9801                 0.5039                74.1196

                    91                     92                     93
                     A                      A                      A
 Frequencies --  3223.1090              3223.7211              3229.0295
 Red. masses --     1.0928                 1.0908                 1.0951
 Frc consts  --     6.6886                 6.6788                 6.7274
 IR Inten    --    24.7474                 0.7557                 2.0868

                    94                     95                     96
                     A                      A                      A
 Frequencies --  3229.8558              3234.5973              3235.6296
 Red. masses --     1.0966                 1.0988                 1.0986
 Frc consts  --     6.7400                 6.7734                 6.7768
 IR Inten    --    23.9237                 1.5832                 0.8868

 - Thermochemistry -
 -------------------
 Temperature   298.150 Kelvin.  Pressure   1.00000 Atm.
 Atom     1 has atomic number  6 and mass  12.00000

 Molecular mass:   359.04257 amu.
 Principal axes and moments of inertia in atomic units:
                           1         2         3
     Eigenvalues --  4734.28214********************
           X            0.99998  -0.00458   0.00325
           Y            0.00460   0.99996  -0.00825
           Z           -0.00321   0.00827   0.99996
 This molecule is an asymmetric top.
 Rotational symmetry number  1.
 Warning -- assumption of classical behavior for rotation
           may cause significant error
 Rotational temperatures (Kelvin)      0.01830     0.00507     0.00443
 Rotational constants (GHZ):           0.38121     0.10562     0.09221
 Zero-point vibrational energy     597324.6 (Joules/Mol)
                                  142.76401 (Kcal/Mol)
 Warning -- explicit consideration of  37 degrees of freedom as
           vibrations may cause significant error
 Vibrational temperatures:     14.65    18.63    31.73    38.76    42.10
          (Kelvin)             51.45    65.29    77.02   104.59   121.46
                              128.45   151.06   181.56   208.04   218.47
                              248.70   285.00   304.41   330.88   439.21
                              478.55   493.60   561.91   564.25   577.20
                              582.30   663.53   666.52   712.67   724.92
                              749.95   767.58   800.70   803.48   804.92
                              812.73   889.71   901.78   903.73   964.91
                              967.59  1088.56  1110.33  1111.97  1115.41
                             1116.93  1227.65  1234.43  1397.31  1400.11
                             1425.93  1447.12  1452.63  1455.04  1460.20
                             1489.36  1493.45  1501.77  1503.12  1610.20
                             1619.44  1627.27  1641.46  1705.33  1723.22
                             1728.77  1730.03  1746.55  1756.78  1759.96
                             1805.11  1810.05  1949.13  1956.80  1984.72
                             1986.84  2150.76  2153.18  2160.68  2166.80
                             2325.69  2326.93  2340.36  2341.41  3364.51
                             3419.63  4553.45  4619.99  4621.04  4634.07
                             4637.33  4638.21  4645.85  4647.04  4653.86
                             4655.34

 Zero-point correction=                           0.227509 (Hartree/Particle)
 Thermal correction to Energy=                    0.251061
 Thermal correction to Enthalpy=                  0.252005
 Thermal correction to Gibbs Free Energy=         0.166969
 Sum of electronic and zero-point Energies=          -1643.171466
 Sum of electronic and thermal Energies=             -1643.147914
 Sum of electronic and thermal Enthalpies=           -1643.146970
 Sum of electronic and thermal Free Energies=        -1643.232006

                     E (Thermal)             CV                S
                      KCal/Mol        Cal/Mol-Kelvin    Cal/Mol-Kelvin
 Total                  157.543             82.611            178.974
 Electronic               0.000              0.000              0.000
 Translational            0.889              2.981             43.528
 Rotational               0.889              2.981             35.714
 Vibrational            155.766             76.649             99.732
 Vibration     1          0.593              1.987              7.975
 Vibration     2          0.593              1.987              7.497
 Vibration     3          0.593              1.985              6.440
 Vibration     4          0.593              1.984              6.043
 Vibration     5          0.593              1.984              5.879
 Vibration     6          0.594              1.982              5.481
 Vibration     7          0.595              1.979              5.009
 Vibration     8          0.596              1.976              4.682
 Vibration     9          0.599              1.967              4.079
 Vibration    10          0.601              1.960              3.785
 Vibration    11          0.602              1.957              3.676
 Vibration    12          0.605              1.945              3.359
 Vibration    13          0.611              1.927              3.003
 Vibration    14          0.616              1.909              2.742
 Vibration    15          0.619              1.901              2.649
 Vibration    16          0.626              1.876              2.404
 Vibration    17          0.637              1.843              2.151
 Vibration    18          0.643              1.823              2.030
 Vibration    19          0.652              1.795              1.879
 Vibration    20          0.696              1.664              1.388
 Vibration    21          0.715              1.610              1.247
 Vibration    22          0.722              1.589              1.198
 Vibration    23          0.758              1.490              0.998
 Vibration    24          0.760              1.487              0.992
 Vibration    25          0.767              1.468              0.958
 Vibration    26          0.770              1.460              0.945
 Vibration    27          0.819              1.336              0.763
 Vibration    28          0.821              1.332              0.757
 Vibration    29          0.851              1.260              0.670
 Vibration    30          0.859              1.241              0.649
 Vibration    31          0.876              1.203              0.607
 Vibration    32          0.888              1.176              0.579
 Vibration    33          0.912              1.125              0.531
 Vibration    34          0.914              1.121              0.527
 Vibration    35          0.915              1.119              0.525
 Vibration    36          0.921              1.107              0.514
 Vibration    37          0.978              0.993              0.419

 Normal termination of Gaussian 09 at Fri Feb 25 09:00:15 2005.
