 Gaussian 09, Revision B.01,
 Gaussian 09:  EM64L-G09RevB.01 12-Aug-2010

 ----------------------------
 # opt freq rb3lyp/6-31G(d,p)
 ----------------------------

 ----------------------------------
 x2-Ph-N2-OTf-v1-RB3LYP-6-311++G_dp
 ----------------------------------
 Symbolic Z-matrix:
 Charge =  1 Multiplicity = 1

 SCF Done:  E(RB3LYP) =  -1643.35361559     A.U. after   18 cycles
 SCF Done:  E(RB3LYP) =  -1643.38572068     A.U. after   18 cycles
 SCF Done:  E(RB3LYP) =  -1643.39279117     A.U. after   18 cycles
 SCF Done:  E(RB3LYP) =  -1643.39605611     A.U. after   18 cycles
 SCF Done:  E(RB3LYP) =  -1643.39713379     A.U. after   12 cycles
 SCF Done:  E(RB3LYP) =  -1643.39755709     A.U. after   18 cycles
 SCF Done:  E(RB3LYP) =  -1643.39773860     A.U. after   12 cycles
 SCF Done:  E(RB3LYP) =  -1643.39797089     A.U. after   13 cycles
 SCF Done:  E(RB3LYP) =  -1643.39814760     A.U. after   13 cycles
 SCF Done:  E(RB3LYP) =  -1643.39836214     A.U. after   18 cycles
 SCF Done:  E(RB3LYP) =  -1643.39988035     A.U. after    9 cycles
 SCF Done:  E(RB3LYP) =  -1643.39988125     A.U. after    9 cycles
 SCF Done:  E(RB3LYP) =  -1643.39988187     A.U. after    9 cycles
 SCF Done:  E(RB3LYP) =  -1643.39988241     A.U. after    9 cycles
 SCF Done:  E(RB3LYP) =  -1643.39988257     A.U. after    8 cycles
 SCF Done:  E(RB3LYP) =  -1643.39988288     A.U. after    8 cycles
 SCF Done:  E(RB3LYP) =  -1643.39988296     A.U. after    8 cycles
 SCF Done:  E(RB3LYP) =  -1643.39988299     A.U. after    7 cycles
 SCF Done:  E(RB3LYP) =  -1643.39988300     A.U. after    7 cycles
 Optimization completed.
    -- Stationary point found.
 Normal termination of Gaussian 09 at Tue Jan 11 03:57:21 2005.

 ----------------------------------------------------------------------
 #N Geom=AllCheck Guess=TCheck SCRF=Check GenChk RB3LYP/6-31G(d,p) Freq
 ----------------------------------------------------------------------

 x2-Ph-N2-OTf-v1-RB3LYP-6-311++G_dp
 ----------------------------------
 Redundant internal coordinates taken from checkpoint file:
 Ph-N2-OTf-N2-Ph.chk
 Charge =  1 Multiplicity = 1

                         Standard orientation:
 ---------------------------------------------------------------------
 Center     Atomic      Atomic             Coordinates (Angstroms)
 Number     Number       Type             X           Y           Z
 ---------------------------------------------------------------------
      1          6           0        4.154910   -0.372762    1.029260
      2          6           0        4.386147   -0.289308   -0.354580
      3          6           0        5.643596   -0.487173   -0.959670
      4          6           0        6.708931   -0.787334   -0.125653
      5          6           0        6.512591   -0.879540    1.259765
      6          6           0        5.251417   -0.673306    1.828828
      7          1           0        3.157670   -0.187570    1.416871
      8          1           0        5.761369   -0.407967   -2.034452
      9          1           0        7.693025   -0.948348   -0.551305
     10          1           0        7.356451   -1.112955    1.901100
     11          1           0        5.119388   -0.743860    2.902764
     12          7           0        3.328454    0.002644   -1.197102
     13          7           0        2.509139    0.220019   -1.921335
     14         16           0        0.093112    0.233526    0.320074
     15          8           0        0.285987   -0.617042   -0.892211
     16          8           0       -0.950928   -0.275763    1.238419
     17          8           0        1.359510    0.681014    0.940197
     18          6           0       -0.650334    1.791976   -0.366983
     19          9           0       -1.831752    1.494655   -0.953685
     20          9           0        0.154204    2.333600   -1.287695
     21          9           0       -0.875862    2.683909    0.598150
     22          1           0       -2.960315    0.147106    1.358712
     23          6           0       -3.921109   -0.146959    0.949762
     24          6           0       -3.970715   -1.065194   -0.112384
     25          6           0       -5.138258    0.327830    1.423702
     26          6           0       -5.165352   -1.520401   -0.706935
     27          6           0       -6.341438   -0.100339    0.853035
     28          1           0       -5.145959    1.036917    2.243976
     29          6           0       -6.356208   -1.019085   -0.206034
     30          1           0       -5.142236   -2.232014   -1.524472
     31          1           0       -7.281380    0.283588    1.236412
     32          1           0       -7.296599   -1.342697   -0.637904
     33          7           0       -2.793351   -1.579042   -0.628351
     34          7           0       -1.903119   -2.045647   -1.111461
 ---------------------------------------------------------------------

 SCF Done:  E(RB3LYP) =  -1643.39988300     A.U. after    1 cycles

 The electronic state is 1-A.
 Alpha  occ. eigenvalues --  -89.19387 -24.82277 -24.82049 -24.81834 -19.22278
 Alpha  occ. eigenvalues --  -19.22100 -19.22057 -14.66359 -14.66296 -14.63246
 Alpha  occ. eigenvalues --  -14.63190 -10.52345 -10.41893 -10.41862 -10.36324
 Alpha  occ. eigenvalues --  -10.36302 -10.35103 -10.35062 -10.34616 -10.34576
 Alpha  occ. eigenvalues --  -10.34095 -10.34056 -10.33671 -10.33618  -8.21672
 Alpha  occ. eigenvalues --   -6.18117  -6.18114  -6.18077  -1.39866  -1.31276
 Alpha  occ. eigenvalues --   -1.31255  -1.31207  -1.31103  -1.20300  -1.07278
 Alpha  occ. eigenvalues --   -1.06669  -1.04957  -1.04898  -0.96729  -0.96687
 Alpha  occ. eigenvalues --   -0.90476  -0.90443  -0.84101  -0.84078  -0.81299
 Alpha  occ. eigenvalues --   -0.76910  -0.76874  -0.72195  -0.71598  -0.71584
 Alpha  occ. eigenvalues --   -0.67655  -0.67441  -0.66573  -0.66560  -0.66003
 Alpha  occ. eigenvalues --   -0.65961  -0.65306  -0.64998  -0.63087  -0.62849
 Alpha  occ. eigenvalues --   -0.62401  -0.59184  -0.59039  -0.58321  -0.58154
 Alpha  occ. eigenvalues --   -0.57748  -0.57370  -0.55321  -0.55198  -0.54069
 Alpha  occ. eigenvalues --   -0.53796  -0.52971  -0.51961  -0.51875  -0.51569
 Alpha  occ. eigenvalues --   -0.51284  -0.50812  -0.50730  -0.49559  -0.49437
 Alpha  occ. eigenvalues --   -0.49189  -0.42662  -0.42337  -0.41496  -0.41422
 Alpha  occ. eigenvalues --   -0.40391  -0.40329  -0.39282  -0.38969  -0.38086
 Alpha  occ. eigenvalues --   -0.35337
 Alpha virt. eigenvalues --   -0.23319  -0.23295  -0.21330  -0.20713  -0.14949
 Alpha virt. eigenvalues --   -0.14898  -0.11784  -0.11767  -0.04502  -0.04365
 Alpha virt. eigenvalues --    0.00627   0.01154   0.01377   0.01523   0.01656

 Mulliken atomic charges:
              1
     1  C   -0.017249
     2  C    0.218521
     3  C   -0.034096
     4  C   -0.089216
     5  C   -0.043579
     6  C   -0.095540
     7  H    0.213555
     8  H    0.160082
     9  H    0.153329
    10  H    0.153363
    11  H    0.156049
    12  N    0.142496
    13  N   -0.029129
    14  S    1.170077
    15  O   -0.602958
    16  O   -0.590315
    17  O   -0.586611
    18  C    0.570656
    19  F   -0.266509
    20  F   -0.239282
    21  F   -0.228505
    22  H    0.208246
    23  C   -0.018440
    24  C    0.218929
    25  C   -0.095794
    26  C   -0.031814
    27  C   -0.043235
    28  H    0.155932
    29  C   -0.089790
    30  H    0.159500
    31  H    0.153464
    32  H    0.153223
    33  N    0.135665
    34  N   -0.021025
 Sum of Mulliken atomic charges =   1.00000

 Dipole moment (field-independent basis, Debye):
    X=              0.9653    Y=             -4.7961    Z=             -1.7151  Tot=              5.1842
 Quadrupole moment (field-independent basis, Debye-Ang):
   XX=             48.6324   YY=           -130.7620   ZZ=           -123.3417
   XY=              2.1010   XZ=             -1.6223   YZ=              3.9197

  Exact polarizability: 333.198 -21.041 117.166   4.181  17.693 170.319
 Approx polarizability: 473.109 -50.354 196.988   8.665  40.168 326.386

                     1                      2                      3
                     A                      A                      A
 Frequencies --    10.3082                13.4579                19.6438
 Red. masses --     6.9340                 7.6217                 6.9993
 Frc consts  --     0.0004                 0.0008                 0.0016
 IR Inten    --     3.8696                 2.6125                 0.7353

                     4                      5                      6
                     A                      A                      A
 Frequencies --    24.4062                27.8245                35.9669
 Red. masses --     6.1963                 9.5060                 6.2832
 Frc consts  --     0.0022                 0.0043                 0.0048
 IR Inten    --     1.2442                 3.5908                 1.1710

                     7                      8                      9
                     A                      A                      A
 Frequencies --    43.4487                59.8602                76.5789
 Red. masses --    10.5475                 8.2682                 7.5711
 Frc consts  --     0.0117                 0.0175                 0.0262
 IR Inten    --     0.8182                 2.0339                 1.3657

                    10                     11                     12
                     A                      A                      A
 Frequencies --    77.9445                91.1728               109.0257
 Red. masses --     7.8667                 6.8317                10.6072
 Frc consts  --     0.0282                 0.0335                 0.0743
 IR Inten    --     3.6423                16.4743                12.9139

                    13                     14                     15
                     A                      A                      A
 Frequencies --   119.7203               149.4400               151.5676
 Red. masses --    11.4680                 5.8267                 5.7568
 Frc consts  --     0.0968                 0.0767                 0.0779
 IR Inten    --    67.1493                 0.1851                 0.2966

                    16                     17                     18
                     A                      A                      A
 Frequencies --   195.6539               211.6233               218.6159
 Red. masses --    14.4137                11.9426                12.2430
 Frc consts  --     0.3251                 0.3151                 0.3447
 IR Inten    --     2.6172                13.4598                 7.7182

                    19                     20                     21
                     A                      A                      A
 Frequencies --   220.8852               307.3317               333.7200
 Red. masses --    10.2327                17.7264                17.4240
 Frc consts  --     0.2942                 0.9865                 1.1433
 IR Inten    --    18.6132                 2.6373                 2.5556

                    22                     23                     24
                     A                      A                      A
 Frequencies --   343.7940               393.0176               393.1077
 Red. masses --    17.3311                 4.1663                 4.1027
 Frc consts  --     1.2069                 0.3792                 0.3735
 IR Inten    --    15.6207                 0.7861                 0.0157

                    25                     26                     27
                     A                      A                      A
 Frequencies --   403.8114               404.9463               460.5807
 Red. masses --     3.0990                 3.1464                 8.7112
 Frc consts  --     0.2977                 0.3040                 1.0888
 IR Inten    --     0.1695                 0.2222                 0.5908

                    28                     29                     30
                     A                      A                      A
 Frequencies --   462.0469               493.8956               503.2265
 Red. masses --     8.5639                17.0598                17.5806
 Frc consts  --     1.0772                 2.4518                 2.6231
 IR Inten    --    10.4735                14.4615                54.3214

                    31                     32                     33
                     A                      A                      A
 Frequencies --   525.7386               527.4227               555.8805
 Red. masses --     8.1185                 8.0861                 5.7887
 Frc consts  --     1.3221                 1.3253                 1.0539
 IR Inten    --     2.1311                 0.0290                 7.5462

                    34                     35                     36
                     A                      A                      A
 Frequencies --   556.3084               558.6864               563.9286
 Red. masses --     5.7717                17.5998                17.9257
 Frc consts  --     1.0524                 3.2366                 3.3587
 IR Inten    --     9.2088                 4.7322                22.5419

                    37                     38                     39
                     A                      A                      A
 Frequencies --   618.3087               627.5120               628.6373
 Red. masses --    17.2859                 6.7780                 7.1260
 Frc consts  --     3.8936                 1.5725                 1.6592
 IR Inten    --   124.8064                 5.7930                 9.5204

                    40                     41                     42
                     A                      A                      A
 Frequencies --   672.2975               673.1600               756.6221
 Red. masses --     2.6580                 2.6192                18.1750
 Frc consts  --     0.7078                 0.6993                 6.1303
 IR Inten    --    17.0764                21.5819                 1.5244

                    43                     44                     45
                     A                      A                      A
 Frequencies --   771.3381               772.0806               774.9670
 Red. masses --     6.1188                 6.2034                 1.3964
 Frc consts  --     2.1449                 2.1787                 0.4941
 IR Inten    --     2.2350                 1.5323                46.3799

                    46                     47                     48
                     A                      A                      A
 Frequencies --   776.1868               857.2739               859.3664
 Red. masses --     1.3974                 1.2356                 1.2357
 Frc consts  --     0.4960                 0.5350                 0.5377
 IR Inten    --    50.3362                 1.2150                 0.5997

                    49                     50                     51
                     A                      A                      A
 Frequencies --   972.7800               974.0545               990.3190
 Red. masses --     1.3120                 1.3258                12.4924
 Frc consts  --     0.7315                 0.7411                 7.2185
 IR Inten    --     1.1936                 0.2984               165.7552

                    52                     53                     54
                     A                      A                      A
 Frequencies --  1010.6289              1011.0090              1012.9942
 Red. masses --     2.8192                 5.6772                 1.8189
 Frc consts  --     1.6965                 3.4190                 1.0997
 IR Inten    --     0.4145                 0.8293                 3.9368

                    55                     56                     57
                     A                      A                      A
 Frequencies --  1016.8945              1036.7685              1039.2968
 Red. masses --     1.3767                 1.3325                 1.3276
 Frc consts  --     0.8387                 0.8439                 0.8449
 IR Inten    --     6.0380                 0.0726                 0.9533

                    58                     59                     60
                     A                      A                      A
 Frequencies --  1044.3924              1044.7443              1118.7140
 Red. masses --     2.3068                 2.3179                 1.5587
 Frc consts  --     1.4825                 1.4906                 1.1494
 IR Inten    --     3.8883                 2.2129                60.7651

                    61                     62                     63
                     A                      A                      A
 Frequencies --  1119.5034              1130.6727              1133.0636
 Red. masses --     1.5444                 3.5426                 3.7682
 Frc consts  --     1.1404                 2.6683                 2.8503
 IR Inten    --    16.7023               194.5627                87.7058

                    64                     65                     66
                     A                      A                      A
 Frequencies --  1180.1724              1191.7023              1201.6090
 Red. masses --    13.3607                12.4450                 1.1066
 Frc consts  --    10.9641                10.4131                 0.9414
 IR Inten    --    85.7539               128.0921                12.1234

                    67                     68                     69
                     A                      A                      A
 Frequencies --  1201.9873              1213.6493              1216.0257
 Red. masses --     1.1099                 1.3235                 1.2656
 Frc consts  --     0.9448                 1.1485                 1.1026
 IR Inten    --     6.2770                76.0779                14.5649

                    70                     71                     72
                     A                      A                      A
 Frequencies --  1230.9111              1252.8993              1257.6572
 Red. masses --     8.5074                11.3521                13.2210
 Frc consts  --     7.5945                10.4992                12.3208
 IR Inten    --    63.0282               384.8464               414.7344

                    73                     74                     75
                     A                      A                      A
 Frequencies --  1355.6818              1355.8708              1379.7035
 Red. masses --     1.5550                 1.5571                 4.2083
 Frc consts  --     1.6838                 1.6865                 4.7198
 IR Inten    --     8.0500                 3.2182                10.6919

                    76                     77                     78
                     A                      A                      A
 Frequencies --  1379.7792              1496.5702              1496.8704
 Red. masses --     4.0556                 2.3286                 2.3433
 Frc consts  --     4.5491                 3.0729                 3.0934
 IR Inten    --    20.4673                18.3625                18.3351

                    79                     80                     81
                     A                      A                      A
 Frequencies --  1501.4229              1502.2022              1616.7542
 Red. masses --     1.9206                 1.9264                 5.1990
 Frc consts  --     2.5509                 2.5612                 8.0068
 IR Inten    --     3.4101                 0.8983                 6.1644

                    82                     83                     84
                     A                      A                      A
 Frequencies --  1617.0208              1627.1582              1627.3289
 Red. masses --     5.2220                 5.1250                 5.1324
 Frc consts  --     8.0449                 7.9947                 8.0079
 IR Inten    --     2.6950               108.5374                32.9537

                    85                     86                     87
                     A                      A                      A
 Frequencies --  2345.1778              2348.6808              3204.6633
 Red. masses --    13.9373                13.9397                 1.0954
 Frc consts  --    45.1627                45.3055                 6.6278
 IR Inten    --    81.6334                92.7070               176.4450

                    88                     89                     90
                     A                      A                      A
 Frequencies --  3210.9430              3212.3886              3216.1847
 Red. masses --     1.0898                 1.0897                 1.0943
 Frc consts  --     6.6198                 6.6257                 6.6691
 IR Inten    --    21.6713                11.1649                95.9700

                    91                     92                     93
                     A                      A                      A
 Frequencies --  3222.7407              3223.0534              3228.9349
 Red. masses --     1.0910                 1.0913                 1.0956
 Frc consts  --     6.6762                 6.6792                 6.7300
 IR Inten    --     1.2644                 3.1671                 4.9085

                    94                     95                     96
                     A                      A                      A
 Frequencies --  3229.6430              3234.6627              3234.9064
 Red. masses --     1.0960                 1.0987                 1.0987
 Frc consts  --     6.7352                 6.7730                 6.7741
 IR Inten    --     9.4893                 0.8608                 1.0099

 - Thermochemistry -
 -------------------
 Temperature   298.150 Kelvin.  Pressure   1.00000 Atm.
 Atom     1 has atomic number  6 and mass  12.00000

 Molecular mass:   359.04257 amu.
 Principal axes and moments of inertia in atomic units:
                           1         2         3
     Eigenvalues --  3203.17108********************
           X            1.00000  -0.00095   0.00088
           Y            0.00092   0.99913   0.04180
           Z           -0.00092  -0.04180   0.99913
 This molecule is an asymmetric top.
 Rotational symmetry number  1.
 Warning -- assumption of classical behavior for rotation
           may cause significant error
 Rotational temperatures (Kelvin)      0.02704     0.00446     0.00434
 Rotational constants (GHZ):           0.56342     0.09298     0.09040
 Zero-point vibrational energy     597553.4 (Joules/Mol)
                                  142.81869 (Kcal/Mol)
 Warning -- explicit consideration of  37 degrees of freedom as
           vibrations may cause significant error
 Vibrational temperatures:     14.83    19.36    28.26    35.12    40.03
          (Kelvin)             51.75    62.51    86.13   110.18   112.14
                              131.18   156.86   172.25   215.01   218.07
                              281.50   304.48   314.54   317.80   442.18
                              480.15   494.64   565.46   565.59   580.99
                              582.63   662.67   664.78   710.60   724.03
                              756.42   758.84   799.79   800.40   803.82
                              811.37   889.61   902.85   904.47   967.28
                              968.53  1088.61  1109.78  1110.85  1115.00
                             1116.76  1233.42  1236.43  1399.61  1401.45
                             1424.85  1454.07  1454.61  1457.47  1463.08
                             1491.68  1495.31  1502.65  1503.15  1609.58
                             1610.71  1626.78  1630.22  1698.00  1714.59
                             1728.85  1729.39  1746.17  1749.59  1771.00
                             1802.64  1809.49  1950.52  1950.79  1985.08
                             1985.19  2153.23  2153.66  2160.21  2161.33
                             2326.15  2326.53  2341.11  2341.36  3374.18
                             3379.22  4610.79  4619.82  4621.90  4627.37
                             4636.80  4637.25  4645.71  4646.73  4653.95
                             4654.30

 Zero-point correction=                           0.227596 (Hartree/Particle)
 Thermal correction to Energy=                    0.251088
 Thermal correction to Enthalpy=                  0.252032
 Thermal correction to Gibbs Free Energy=         0.167160
 Sum of electronic and zero-point Energies=          -1643.172287
 Sum of electronic and thermal Energies=             -1643.148795
 Sum of electronic and thermal Enthalpies=           -1643.147851
 Sum of electronic and thermal Free Energies=        -1643.232723

                     E (Thermal)             CV                S
                      KCal/Mol        Cal/Mol-Kelvin    Cal/Mol-Kelvin
 Total                  157.560             82.556            178.628
 Electronic               0.000              0.000              0.000
 Translational            0.889              2.981             43.528
 Rotational               0.889              2.981             35.472
 Vibrational            155.782             76.594             99.627
 Vibration     1          0.593              1.987              7.951
 Vibration     2          0.593              1.987              7.421
 Vibration     3          0.593              1.986              6.670
 Vibration     4          0.593              1.985              6.239
 Vibration     5          0.593              1.984              5.979
 Vibration     6          0.594              1.982              5.470
 Vibration     7          0.595              1.980              5.095
 Vibration     8          0.597              1.973              4.462
 Vibration     9          0.599              1.965              3.977
 Vibration    10          0.599              1.964              3.942
 Vibration    11          0.602              1.955              3.635
 Vibration    12          0.606              1.942              3.286
 Vibration    13          0.609              1.933              3.105
 Vibration    14          0.618              1.903              2.679
 Vibration    15          0.619              1.901              2.652
 Vibration    16          0.636              1.846              2.174
 Vibration    17          0.643              1.823              2.030
 Vibration    18          0.646              1.813              1.971
 Vibration    19          0.648              1.809              1.952
 Vibration    20          0.697              1.660              1.377
 Vibration    21          0.715              1.608              1.242
 Vibration    22          0.723              1.588              1.194
 Vibration    23          0.760              1.485              0.989
 Vibration    24          0.760              1.485              0.988
 Vibration    25          0.769              1.462              0.949
 Vibration    26          0.770              1.459              0.945
 Vibration    27          0.818              1.337              0.764
 Vibration    28          0.820              1.334              0.760
 Vibration    29          0.850              1.264              0.674
 Vibration    30          0.859              1.243              0.650
 Vibration    31          0.881              1.193              0.597
 Vibration    32          0.882              1.189              0.593
 Vibration    33          0.911              1.127              0.532
 Vibration    34          0.912              1.126              0.531
 Vibration    35          0.914              1.121              0.526
 Vibration    36          0.920              1.109              0.516
 Vibration    37          0.978              0.993              0.419

 Normal termination of Gaussian 09 at Tue Jan 11 04:17:21 2005.
